# Region        : cellZone component_1
# Cells         : 120
# Volume        : 2.02890106e-01
# Time          	volAverage(T)
1               	3.01756624e+02
2               	3.03467531e+02
3               	3.04781143e+02
4               	3.05843380e+02
5               	3.06906619e+02
6               	3.08027478e+02
7               	3.09134796e+02
8               	3.10174406e+02
9               	3.11186379e+02
10              	3.12185451e+02
11              	3.13141286e+02
12              	3.14010661e+02
13              	3.14771653e+02
14              	3.15452819e+02
15              	3.16144074e+02
16              	3.16835269e+02
17              	3.17528637e+02
18              	3.18176988e+02
19              	3.18819493e+02
20              	3.19474728e+02
21              	3.20133125e+02
22              	3.20755805e+02
23              	3.21340629e+02
24              	3.21886429e+02
25              	3.22418824e+02
26              	3.22970361e+02
27              	3.23562383e+02
28              	3.24043264e+02
29              	3.24377330e+02
30              	3.24639912e+02
31              	3.24908607e+02
32              	3.25252470e+02
33              	3.25585947e+02
34              	3.25936430e+02
35              	3.26280301e+02
36              	3.26627683e+02
37              	3.26997814e+02
38              	3.27382744e+02
39              	3.27776096e+02
40              	3.28023042e+02
41              	3.28178692e+02
42              	3.28363220e+02
43              	3.28613337e+02
44              	3.28906515e+02
45              	3.29236239e+02
46              	3.29493270e+02
47              	3.29716865e+02
48              	3.29948430e+02
49              	3.30230317e+02
50              	3.30430327e+02
51              	3.30601109e+02
52              	3.30784594e+02
53              	3.30797396e+02
54              	3.30703026e+02
55              	3.30669142e+02
56              	3.30790380e+02
57              	3.30970096e+02
58              	3.31145662e+02
59              	3.31281427e+02
60              	3.31430055e+02
61              	3.31563390e+02
62              	3.31795585e+02
63              	3.31952884e+02
64              	3.31955161e+02
65              	3.31854455e+02
66              	3.31828759e+02
67              	3.31946277e+02
68              	3.32190100e+02
69              	3.32485009e+02
70              	3.32765256e+02
71              	3.33023033e+02
72              	3.33259618e+02
73              	3.33461596e+02
74              	3.33645429e+02
75              	3.33884410e+02
76              	3.34022059e+02
77              	3.34035853e+02
78              	3.33961124e+02
79              	3.33917338e+02
80              	3.34095260e+02
81              	3.34336528e+02
82              	3.34564253e+02
83              	3.34772863e+02
84              	3.34972328e+02
85              	3.35218758e+02
86              	3.35397478e+02
87              	3.35500219e+02
88              	3.35544401e+02
89              	3.35602843e+02
90              	3.35672711e+02
91              	3.35763696e+02
92              	3.35934811e+02
93              	3.36137423e+02
94              	3.36326504e+02
95              	3.36519767e+02
96              	3.36684124e+02
97              	3.36893348e+02
98              	3.37135846e+02
99              	3.37292553e+02
100             	3.37313863e+02
101             	3.37311445e+02
102             	3.37409561e+02
103             	3.37571816e+02
104             	3.37782124e+02
105             	3.37991657e+02
106             	3.38185772e+02
107             	3.38369949e+02
108             	3.38562360e+02
109             	3.38734689e+02
110             	3.38923298e+02
111             	3.39113448e+02
112             	3.39305989e+02
113             	3.39502962e+02
114             	3.39647783e+02
115             	3.39861038e+02
116             	3.40055661e+02
117             	3.40205714e+02
118             	3.40352993e+02
119             	3.40511307e+02
120             	3.40623078e+02
121             	3.40682996e+02
122             	3.40807188e+02
123             	3.40966092e+02
124             	3.41120284e+02
125             	3.41268536e+02
126             	3.41421000e+02
127             	3.41577225e+02
128             	3.41694485e+02
129             	3.41856709e+02
130             	3.42004901e+02
131             	3.42136446e+02
132             	3.42272321e+02
133             	3.42420401e+02
134             	3.42583706e+02
135             	3.42731520e+02
136             	3.42856151e+02
137             	3.42981275e+02
138             	3.43081779e+02
139             	3.43194585e+02
140             	3.43272865e+02
141             	3.43345831e+02
142             	3.43436888e+02
143             	3.43496457e+02
144             	3.43553525e+02
145             	3.43573989e+02
146             	3.43602233e+02
147             	3.43641348e+02
148             	3.43697463e+02
149             	3.43772790e+02
150             	3.43867240e+02
151             	3.43956585e+02
152             	3.44076839e+02
153             	3.44140333e+02
154             	3.44239433e+02
155             	3.44342329e+02
156             	3.44377401e+02
157             	3.44382928e+02
158             	3.44390651e+02
159             	3.44421518e+02
160             	3.44420864e+02
161             	3.44445804e+02
162             	3.44505127e+02
163             	3.44594466e+02
164             	3.44722588e+02
165             	3.44795774e+02
166             	3.44898197e+02
167             	3.44970111e+02
168             	3.45053496e+02
169             	3.45115565e+02
170             	3.45182978e+02
171             	3.45248915e+02
172             	3.45283158e+02
173             	3.45330590e+02
174             	3.45348016e+02
175             	3.45393472e+02
176             	3.45443036e+02
177             	3.45504041e+02
178             	3.45489154e+02
179             	3.45505930e+02
180             	3.45535899e+02
181             	3.45565189e+02
182             	3.45592214e+02
183             	3.45575558e+02
184             	3.45589743e+02
185             	3.45623758e+02
186             	3.45678302e+02
187             	3.45740841e+02
188             	3.45810836e+02
189             	3.45865656e+02
190             	3.45894040e+02
191             	3.45945873e+02
192             	3.46003264e+02
193             	3.45980550e+02
194             	3.45983107e+02
195             	3.46001554e+02
196             	3.46025595e+02
197             	3.46053825e+02
198             	3.46026188e+02
199             	3.46017655e+02
200             	3.46023915e+02
201             	3.46000762e+02
202             	3.46011515e+02
203             	3.46041091e+02
204             	3.46044299e+02
205             	3.46075420e+02
206             	3.46115862e+02
207             	3.46120949e+02
208             	3.46144105e+02
209             	3.46174714e+02
210             	3.46164457e+02
211             	3.46177419e+02
212             	3.46203714e+02
213             	3.46248067e+02
214             	3.46250708e+02
215             	3.46280146e+02
216             	3.46323868e+02
217             	3.46333657e+02
218             	3.46372134e+02
219             	3.46414077e+02
220             	3.46413600e+02
221             	3.46434379e+02
222             	3.46464766e+02
223             	3.46451617e+02
224             	3.46467537e+02
225             	3.46495905e+02
226             	3.46488696e+02
227             	3.46499359e+02
228             	3.46532214e+02
229             	3.46523615e+02
230             	3.46540145e+02
231             	3.46569040e+02
232             	3.46561203e+02
233             	3.46575985e+02
234             	3.46606204e+02
235             	3.46601369e+02
236             	3.46622998e+02
237             	3.46659767e+02
238             	3.46657641e+02
239             	3.46675981e+02
240             	3.46703613e+02
241             	3.46690830e+02
242             	3.46706276e+02
243             	3.46731742e+02
244             	3.46720657e+02
245             	3.46728077e+02
246             	3.46752718e+02
247             	3.46734313e+02
248             	3.46736787e+02
249             	3.46749166e+02
250             	3.46726595e+02
251             	3.46729779e+02
252             	3.46750018e+02
253             	3.46737628e+02
254             	3.46753540e+02
255             	3.46788120e+02
256             	3.46787865e+02
257             	3.46811413e+02
258             	3.46851707e+02
259             	3.46847892e+02
260             	3.46857694e+02
261             	3.46881319e+02
262             	3.46865063e+02
263             	3.46869736e+02
264             	3.46884493e+02
265             	3.46861840e+02
266             	3.46865464e+02
267             	3.46884243e+02
268             	3.46866689e+02
269             	3.46872257e+02
270             	3.46893416e+02
271             	3.46874048e+02
272             	3.46878997e+02
273             	3.46896499e+02
274             	3.46882388e+02
275             	3.46892742e+02
276             	3.46921802e+02
277             	3.46909829e+02
278             	3.46927296e+02
279             	3.46959815e+02
280             	3.46952571e+02
281             	3.46967493e+02
282             	3.46994163e+02
283             	3.46980339e+02
284             	3.46988800e+02
285             	3.47006018e+02
286             	3.46984665e+02
287             	3.46986369e+02
288             	3.47006662e+02
289             	3.46985096e+02
290             	3.46989971e+02
291             	3.47006953e+02
292             	3.46988868e+02
293             	3.46992573e+02
294             	3.47013301e+02
295             	3.46996332e+02
296             	3.47001097e+02
297             	3.47019067e+02
298             	3.46999580e+02
299             	3.47004734e+02
300             	3.47025735e+02
301             	3.47009754e+02
302             	3.47018928e+02
303             	3.47044038e+02
304             	3.47032815e+02
305             	3.47047159e+02
306             	3.47075849e+02
307             	3.47064568e+02
308             	3.47077153e+02
309             	3.47102518e+02
310             	3.47087685e+02
311             	3.47093842e+02
312             	3.47116527e+02
313             	3.47097552e+02
314             	3.47105488e+02
315             	3.47124275e+02
316             	3.47110006e+02
317             	3.47114771e+02
318             	3.47138078e+02
319             	3.47121793e+02
320             	3.47129338e+02
321             	3.47150754e+02
322             	3.47132618e+02
323             	3.47137201e+02
324             	3.47155572e+02
325             	3.47136722e+02
326             	3.47140521e+02
327             	3.47159686e+02
328             	3.47140871e+02
329             	3.47146205e+02
330             	3.47165727e+02
331             	3.47149435e+02
332             	3.47155370e+02
333             	3.47176627e+02
334             	3.47156320e+02
335             	3.47163641e+02
336             	3.47180825e+02
337             	3.47161534e+02
338             	3.47165005e+02
339             	3.47182562e+02
340             	3.47162870e+02
341             	3.47168422e+02
342             	3.47190236e+02
343             	3.47175683e+02
344             	3.47184668e+02
345             	3.47209911e+02
346             	3.47194596e+02
347             	3.47203366e+02
348             	3.47222400e+02
349             	3.47204491e+02
350             	3.47208261e+02
351             	3.47227966e+02
352             	3.47207309e+02
353             	3.47211844e+02
354             	3.47229193e+02
355             	3.47211458e+02
356             	3.47215143e+02
357             	3.47236480e+02
358             	3.47218006e+02
359             	3.47225818e+02
360             	3.47245998e+02
361             	3.47230951e+02
362             	3.47236349e+02
363             	3.47259473e+02
364             	3.47240341e+02
365             	3.47247728e+02
366             	3.47265490e+02
367             	3.47249043e+02
368             	3.47251359e+02
369             	3.47269638e+02
370             	3.47249138e+02
371             	3.47251995e+02
372             	3.47267936e+02
373             	3.47247636e+02
374             	3.47249101e+02
375             	3.47267053e+02
376             	3.47245919e+02
377             	3.47251476e+02
378             	3.47268357e+02
379             	3.47251038e+02
380             	3.47254983e+02
381             	3.47276354e+02
382             	3.47255686e+02
383             	3.47261289e+02
384             	3.47279254e+02
385             	3.47261786e+02
386             	3.47263930e+02
387             	3.47283191e+02
388             	3.47262955e+02
389             	3.47268903e+02
390             	3.47286042e+02
391             	3.47267896e+02
392             	3.47270640e+02
393             	3.47289355e+02
394             	3.47267022e+02
395             	3.47270491e+02
396             	3.47285793e+02
397             	3.47266773e+02
398             	3.47267407e+02
399             	3.47285093e+02
400             	3.47263759e+02
401             	3.47268115e+02
402             	3.47284099e+02
403             	3.47265133e+02
404             	3.47266928e+02
405             	3.47286392e+02
406             	3.47264702e+02
407             	3.47269008e+02
408             	3.47286724e+02
409             	3.47268890e+02
410             	3.47271498e+02
411             	3.47292004e+02
412             	3.47270630e+02
413             	3.47276487e+02
414             	3.47293981e+02
415             	3.47275730e+02
416             	3.47278062e+02
417             	3.47296851e+02
418             	3.47275737e+02
419             	3.47279885e+02
420             	3.47295845e+02
421             	3.47276708e+02
422             	3.47278315e+02
423             	3.47297683e+02
424             	3.47276992e+02
425             	3.47282566e+02
426             	3.47298702e+02
427             	3.47280078e+02
428             	3.47281867e+02
429             	3.47301445e+02
430             	3.47279797e+02
431             	3.47284389e+02
432             	3.47301610e+02
433             	3.47283951e+02
434             	3.47285993e+02
435             	3.47305206e+02
436             	3.47284662e+02
437             	3.47289800e+02
438             	3.47305292e+02
439             	3.47285176e+02
440             	3.47286958e+02
441             	3.47304100e+02
442             	3.47282412e+02
443             	3.47285846e+02
444             	3.47300831e+02
445             	3.47281215e+02
446             	3.47281428e+02
447             	3.47299301e+02
448             	3.47277129e+02
449             	3.47281515e+02
450             	3.47296073e+02
451             	3.47276351e+02
452             	3.47278345e+02
453             	3.47297710e+02
454             	3.47275563e+02
455             	3.47279131e+02
456             	3.47295845e+02
457             	3.47277138e+02
458             	3.47279259e+02
459             	3.47298644e+02
460             	3.47277511e+02
461             	3.47282001e+02
462             	3.47298933e+02
463             	3.47281272e+02
464             	3.47282965e+02
465             	3.47301693e+02
466             	3.47280838e+02
467             	3.47285978e+02
468             	3.47301844e+02
469             	3.47283176e+02
470             	3.47285698e+02
471             	3.47305625e+02
472             	3.47284028e+02
473             	3.47288107e+02
474             	3.47305550e+02
475             	3.47287293e+02
476             	3.47289677e+02
477             	3.47309027e+02
478             	3.47287421e+02
479             	3.47291805e+02
480             	3.47308755e+02
481             	3.47290755e+02
482             	3.47292657e+02
483             	3.47311948e+02
484             	3.47290890e+02
485             	3.47295966e+02
486             	3.47312114e+02
487             	3.47293583e+02
488             	3.47295496e+02
489             	3.47314206e+02
490             	3.47292429e+02
491             	3.47296326e+02
492             	3.47312014e+02
493             	3.47293231e+02
494             	3.47294292e+02
495             	3.47312400e+02
496             	3.47291111e+02
497             	3.47295697e+02
498             	3.47310565e+02
499             	3.47291058e+02
500             	3.47292990e+02
501             	3.47311558e+02
502             	3.47289591e+02
503             	3.47293686e+02
504             	3.47309380e+02
505             	3.47290642e+02
506             	3.47292118e+02
507             	3.47310541e+02
508             	3.47289230e+02
509             	3.47293851e+02
510             	3.47309452e+02
511             	3.47290471e+02
512             	3.47292614e+02
513             	3.47311678e+02
514             	3.47289742e+02
515             	3.47293667e+02
516             	3.47310245e+02
517             	3.47291736e+02
518             	3.47293527e+02
519             	3.47312589e+02
520             	3.47290990e+02
521             	3.47295331e+02
522             	3.47311599e+02
523             	3.47293187e+02
524             	3.47294155e+02
525             	3.47311906e+02
526             	3.47290458e+02
527             	3.47294331e+02
528             	3.47309800e+02
529             	3.47290478e+02
530             	3.47290880e+02
531             	3.47308258e+02
532             	3.47286349e+02
533             	3.47290796e+02
534             	3.47306199e+02
535             	3.47287153e+02
536             	3.47289568e+02
537             	3.47308797e+02
538             	3.47287074e+02
539             	3.47291359e+02
540             	3.47307515e+02
541             	3.47289290e+02
542             	3.47290856e+02
543             	3.47309538e+02
544             	3.47289078e+02
545             	3.47294499e+02
546             	3.47311207e+02
547             	3.47292921e+02
548             	3.47296475e+02
549             	3.47316594e+02
550             	3.47296114e+02
551             	3.47301330e+02
552             	3.47318180e+02
553             	3.47300198e+02
554             	3.47301927e+02
555             	3.47320635e+02
556             	3.47299420e+02
557             	3.47303949e+02
558             	3.47318898e+02
559             	3.47299101e+02
560             	3.47300837e+02
561             	3.47319009e+02
562             	3.47296619e+02
563             	3.47300053e+02
564             	3.47315073e+02
565             	3.47295519e+02
566             	3.47296044e+02
567             	3.47313906e+02
568             	3.47291863e+02
569             	3.47295947e+02
570             	3.47311110e+02
571             	3.47291907e+02
572             	3.47293662e+02
573             	3.47312728e+02
574             	3.47290962e+02
575             	3.47295173e+02
576             	3.47311862e+02
577             	3.47293726e+02
578             	3.47295672e+02
579             	3.47314690e+02
580             	3.47294106e+02
581             	3.47299605e+02
582             	3.47315635e+02
583             	3.47296643e+02
584             	3.47299682e+02
585             	3.47318736e+02
586             	3.47297499e+02
587             	3.47302227e+02
588             	3.47318195e+02
589             	3.47299331e+02
590             	3.47301651e+02
591             	3.47321061e+02
592             	3.47299163e+02
593             	3.47303367e+02
594             	3.47320109e+02
595             	3.47301772e+02
596             	3.47303042e+02
597             	3.47321353e+02
598             	3.47299878e+02
599             	3.47304180e+02
600             	3.47318978e+02
601             	3.47298871e+02
602             	3.47300472e+02
603             	3.47318804e+02
604             	3.47296393e+02
605             	3.47300355e+02
606             	3.47316223e+02
607             	3.47297261e+02
608             	3.47298580e+02
609             	3.47317273e+02
610             	3.47295677e+02
611             	3.47300311e+02
612             	3.47315949e+02
613             	3.47296686e+02
614             	3.47298876e+02
615             	3.47317940e+02
616             	3.47295888e+02
617             	3.47299752e+02
618             	3.47316239e+02
619             	3.47297550e+02
620             	3.47298990e+02
621             	3.47317615e+02
622             	3.47296370e+02
623             	3.47301465e+02
624             	3.47317132e+02
625             	3.47297878e+02
626             	3.47300740e+02
627             	3.47320043e+02
628             	3.47298520e+02
629             	3.47303171e+02
630             	3.47319486e+02
631             	3.47300703e+02
632             	3.47302718e+02
633             	3.47321764e+02
634             	3.47299737e+02
635             	3.47303731e+02
636             	3.47319786e+02
637             	3.47301004e+02
638             	3.47302160e+02
639             	3.47320584e+02
640             	3.47299424e+02
641             	3.47304269e+02
642             	3.47320206e+02
643             	3.47301037e+02
644             	3.47303326e+02
645             	3.47322839e+02
646             	3.47300573e+02
647             	3.47304295e+02
648             	3.47321075e+02
649             	3.47302043e+02
650             	3.47303425e+02
651             	3.47321978e+02
652             	3.47299768e+02
653             	3.47303748e+02
654             	3.47319568e+02
655             	3.47300585e+02
656             	3.47301886e+02
657             	3.47320500e+02
658             	3.47298974e+02
659             	3.47303751e+02
660             	3.47319542e+02
661             	3.47300200e+02
662             	3.47302580e+02
663             	3.47322082e+02
664             	3.47300201e+02
665             	3.47304537e+02
666             	3.47321577e+02
667             	3.47303267e+02
668             	3.47304793e+02
669             	3.47323297e+02
670             	3.47302008e+02
671             	3.47306612e+02
672             	3.47322209e+02
673             	3.47302740e+02
674             	3.47304715e+02
675             	3.47324109e+02
676             	3.47301824e+02
677             	3.47305738e+02
678             	3.47322900e+02
679             	3.47304166e+02
680             	3.47305961e+02
681             	3.47325074e+02
682             	3.47303316e+02
683             	3.47307817e+02
684             	3.47324093e+02
685             	3.47305107e+02
686             	3.47306591e+02
687             	3.47325373e+02
688             	3.47303430e+02
689             	3.47307789e+02
690             	3.47323562e+02
691             	3.47304194e+02
692             	3.47305820e+02
693             	3.47324789e+02
694             	3.47302420e+02
695             	3.47306277e+02
696             	3.47322601e+02
697             	3.47303742e+02
698             	3.47304521e+02
699             	3.47322550e+02
700             	3.47301213e+02
701             	3.47305528e+02
702             	3.47321451e+02
703             	3.47302200e+02
704             	3.47303455e+02
705             	3.47322162e+02
706             	3.47300302e+02
707             	3.47304792e+02
708             	3.47320551e+02
709             	3.47301155e+02
710             	3.47303046e+02
711             	3.47322331e+02
712             	3.47299909e+02
713             	3.47303745e+02
714             	3.47320589e+02
715             	3.47301755e+02
716             	3.47303325e+02
717             	3.47322291e+02
718             	3.47300655e+02
719             	3.47305428e+02
720             	3.47321625e+02
721             	3.47302456e+02
722             	3.47304580e+02
723             	3.47324148e+02
724             	3.47301895e+02
725             	3.47305939e+02
726             	3.47322887e+02
727             	3.47304080e+02
728             	3.47305415e+02
729             	3.47324086e+02
730             	3.47302433e+02
731             	3.47307099e+02
732             	3.47322731e+02
733             	3.47303064e+02
734             	3.47305153e+02
735             	3.47324303e+02
736             	3.47301896e+02
737             	3.47305840e+02
738             	3.47322217e+02
739             	3.47303349e+02
740             	3.47304254e+02
741             	3.47322493e+02
742             	3.47301172e+02
743             	3.47305510e+02
744             	3.47321464e+02
745             	3.47302170e+02
746             	3.47303417e+02
747             	3.47322116e+02
748             	3.47300132e+02
749             	3.47304583e+02
750             	3.47320381e+02
751             	3.47300958e+02
752             	3.47302797e+02
753             	3.47322118e+02
754             	3.47299724e+02
755             	3.47303657e+02
756             	3.47320526e+02
757             	3.47301703e+02
758             	3.47303099e+02
759             	3.47321927e+02
760             	3.47300369e+02
761             	3.47305245e+02
762             	3.47321113e+02
763             	3.47301636e+02
764             	3.47304016e+02
765             	3.47323471e+02
766             	3.47301396e+02
767             	3.47305698e+02
768             	3.47322447e+02
769             	3.47303916e+02
770             	3.47305199e+02
771             	3.47323835e+02
772             	3.47302835e+02
773             	3.47307606e+02
774             	3.47323854e+02
775             	3.47304760e+02
776             	3.47306558e+02
777             	3.47325779e+02
778             	3.47303751e+02
779             	3.47308111e+02
780             	3.47324448e+02
781             	3.47305418e+02
782             	3.47306706e+02
783             	3.47325401e+02
784             	3.47303575e+02
785             	3.47308172e+02
786             	3.47323771e+02
787             	3.47304003e+02
788             	3.47306024e+02
789             	3.47325120e+02
790             	3.47302657e+02
791             	3.47306543e+02
792             	3.47322903e+02
793             	3.47304023e+02
794             	3.47304826e+02
795             	3.47322989e+02
796             	3.47301668e+02
797             	3.47306072e+02
798             	3.47322065e+02
799             	3.47302829e+02
800             	3.47304246e+02
801             	3.47323151e+02
802             	3.47301228e+02
803             	3.47305737e+02
804             	3.47321769e+02
805             	3.47302531e+02
806             	3.47304396e+02
807             	3.47323725e+02
808             	3.47301632e+02
809             	3.47305916e+02
810             	3.47322677e+02
811             	3.47304149e+02
812             	3.47305458e+02
813             	3.47324158e+02
814             	3.47303239e+02
815             	3.47308048e+02
816             	3.47324416e+02
817             	3.47305438e+02
818             	3.47307249e+02
819             	3.47326516e+02
820             	3.47304724e+02
821             	3.47309321e+02
822             	3.47325646e+02
823             	3.47306561e+02
824             	3.47308271e+02
825             	3.47327435e+02
826             	3.47305436e+02
827             	3.47309810e+02
828             	3.47326056e+02
829             	3.47306941e+02
830             	3.47308412e+02
831             	3.47327265e+02
832             	3.47305309e+02
833             	3.47309711e+02
834             	3.47325551e+02
835             	3.47306043e+02
836             	3.47307651e+02
837             	3.47326680e+02
838             	3.47304089e+02
839             	3.47307873e+02
840             	3.47324328e+02
841             	3.47305353e+02
842             	3.47306282e+02
843             	3.47324632e+02
844             	3.47303154e+02
845             	3.47307694e+02
846             	3.47323501e+02
847             	3.47304040e+02
848             	3.47305842e+02
849             	3.47325130e+02
850             	3.47302803e+02
851             	3.47306870e+02
852             	3.47323798e+02
853             	3.47305108e+02
854             	3.47306580e+02
855             	3.47325487e+02
856             	3.47304143e+02
857             	3.47309231e+02
858             	3.47325023e+02
859             	3.47305365e+02
860             	3.47308019e+02
861             	3.47327300e+02
862             	3.47305450e+02
863             	3.47310044e+02
864             	3.47326084e+02
865             	3.47306748e+02
866             	3.47308638e+02
867             	3.47327936e+02
868             	3.47305400e+02
869             	3.47309086e+02
870             	3.47325646e+02
871             	3.47306465e+02
872             	3.47307441e+02
873             	3.47325775e+02
874             	3.47303731e+02
875             	3.47308100e+02
876             	3.47323428e+02
877             	3.47303496e+02
878             	3.47305354e+02
879             	3.47324311e+02
880             	3.47301865e+02
881             	3.47305915e+02
882             	3.47322428e+02
883             	3.47303689e+02
884             	3.47304772e+02
885             	3.47323328e+02
886             	3.47302186e+02
887             	3.47306910e+02
888             	3.47323031e+02
889             	3.47303885e+02
890             	3.47305724e+02
891             	3.47325006e+02
892             	3.47302961e+02
893             	3.47307263e+02
894             	3.47323865e+02
895             	3.47305170e+02
896             	3.47306408e+02
897             	3.47325078e+02
898             	3.47303876e+02
899             	3.47308786e+02
900             	3.47324800e+02
901             	3.47305373e+02
902             	3.47307471e+02
903             	3.47326989e+02
904             	3.47304505e+02
905             	3.47308290e+02
906             	3.47325249e+02
907             	3.47306157e+02
908             	3.47307600e+02
909             	3.47326482e+02
910             	3.47304268e+02
911             	3.47308476e+02
912             	3.47324569e+02
913             	3.47305382e+02
914             	3.47306698e+02
915             	3.47325482e+02
916             	3.47303464e+02
917             	3.47307887e+02
918             	3.47323688e+02
919             	3.47304158e+02
920             	3.47305868e+02
921             	3.47325032e+02
922             	3.47302444e+02
923             	3.47306195e+02
924             	3.47322795e+02
925             	3.47303759e+02
926             	3.47304902e+02
927             	3.47323447e+02
928             	3.47301683e+02
929             	3.47306365e+02
930             	3.47321812e+02
931             	3.47301964e+02
932             	3.47304247e+02
933             	3.47323339e+02