# Region        : cellZone fluid
# Cells         : 9336
# Volume        : 1.78752517e+01
# Time          	volAverage(T)
1               	3.00000029e+02
2               	3.00000081e+02
3               	3.00000554e+02
4               	3.00001226e+02
5               	3.00001699e+02
6               	3.00002167e+02
7               	3.00002674e+02
8               	3.00003379e+02
9               	3.00004179e+02
10              	3.00005354e+02
11              	3.00006260e+02
12              	3.00007396e+02
13              	3.00008981e+02
14              	3.00010677e+02
15              	3.00012418e+02
16              	3.00013863e+02
17              	3.00015730e+02
18              	3.00017249e+02
19              	3.00019831e+02
20              	3.00021793e+02
21              	3.00023267e+02
22              	3.00024851e+02
23              	3.00026952e+02
24              	3.00028210e+02
25              	3.00030199e+02
26              	3.00032498e+02
27              	3.00034330e+02
28              	3.00036127e+02
29              	3.00037914e+02
30              	3.00039803e+02
31              	3.00041605e+02
32              	3.00043769e+02
33              	3.00046383e+02
34              	3.00048392e+02
35              	3.00050421e+02
36              	3.00052258e+02
37              	3.00054092e+02
38              	3.00056265e+02
39              	3.00057992e+02
40              	3.00059735e+02
41              	3.00061699e+02
42              	3.00064521e+02
43              	3.00068015e+02
44              	3.00071175e+02
45              	3.00073311e+02
46              	3.00075292e+02
47              	3.00076750e+02
48              	3.00078203e+02
49              	3.00081678e+02
50              	3.00083280e+02
51              	3.00085334e+02
52              	3.00086746e+02
53              	3.00088593e+02
54              	3.00090434e+02
55              	3.00092726e+02
56              	3.00095292e+02
57              	3.00097940e+02
58              	3.00100799e+02
59              	3.00103495e+02
60              	3.00105823e+02
61              	3.00108395e+02
62              	3.00110346e+02
63              	3.00112912e+02
64              	3.00115303e+02
65              	3.00117044e+02
66              	3.00118934e+02
67              	3.00120468e+02
68              	3.00122345e+02
69              	3.00124459e+02
70              	3.00125681e+02
71              	3.00127072e+02
72              	3.00128464e+02
73              	3.00129590e+02
74              	3.00131162e+02
75              	3.00132653e+02
76              	3.00133922e+02
77              	3.00135865e+02
78              	3.00137487e+02
79              	3.00139189e+02
80              	3.00140886e+02
81              	3.00142792e+02
82              	3.00144011e+02
83              	3.00145516e+02
84              	3.00147382e+02
85              	3.00148972e+02
86              	3.00150495e+02
87              	3.00152016e+02
88              	3.00153394e+02
89              	3.00154771e+02
90              	3.00155654e+02
91              	3.00156496e+02
92              	3.00157611e+02
93              	3.00158785e+02
94              	3.00160273e+02
95              	3.00161208e+02
96              	3.00162405e+02
97              	3.00163783e+02
98              	3.00165408e+02
99              	3.00167565e+02
100             	3.00169220e+02
101             	3.00170559e+02
102             	3.00172377e+02
103             	3.00173304e+02
104             	3.00174687e+02
105             	3.00176176e+02
106             	3.00177098e+02
107             	3.00178377e+02
108             	3.00179540e+02
109             	3.00181127e+02
110             	3.00183585e+02
111             	3.00184617e+02
112             	3.00185887e+02
113             	3.00187263e+02
114             	3.00188513e+02
115             	3.00189843e+02
116             	3.00191310e+02
117             	3.00192773e+02
118             	3.00194408e+02
119             	3.00196133e+02
120             	3.00197952e+02
121             	3.00199648e+02
122             	3.00200138e+02
123             	3.00201798e+02
124             	3.00203352e+02
125             	3.00204731e+02
126             	3.00205457e+02
127             	3.00205993e+02
128             	3.00206669e+02
129             	3.00207155e+02
130             	3.00207719e+02
131             	3.00208463e+02
132             	3.00209192e+02
133             	3.00210151e+02
134             	3.00210760e+02
135             	3.00211381e+02
136             	3.00211518e+02
137             	3.00211824e+02
138             	3.00212148e+02
139             	3.00212527e+02
140             	3.00212989e+02
141             	3.00213427e+02
142             	3.00213808e+02
143             	3.00214800e+02
144             	3.00215282e+02
145             	3.00215444e+02
146             	3.00215564e+02
147             	3.00215987e+02
148             	3.00216218e+02
149             	3.00216399e+02
150             	3.00216524e+02
151             	3.00216639e+02
152             	3.00216899e+02
153             	3.00217081e+02
154             	3.00217311e+02
155             	3.00217431e+02
156             	3.00218021e+02
157             	3.00218373e+02
158             	3.00218517e+02
159             	3.00218662e+02
160             	3.00218826e+02
161             	3.00219067e+02
162             	3.00219241e+02
163             	3.00219468e+02
164             	3.00219791e+02
165             	3.00220275e+02
166             	3.00220635e+02
167             	3.00220868e+02
168             	3.00221214e+02
169             	3.00221517e+02
170             	3.00222262e+02
171             	3.00222893e+02
172             	3.00223353e+02
173             	3.00223796e+02
174             	3.00224086e+02
175             	3.00224403e+02
176             	3.00225056e+02
177             	3.00225305e+02
178             	3.00225666e+02
179             	3.00226081e+02
180             	3.00226595e+02
181             	3.00227030e+02
182             	3.00227822e+02
183             	3.00228223e+02
184             	3.00228722e+02
185             	3.00229287e+02
186             	3.00229825e+02
187             	3.00230386e+02
188             	3.00230892e+02
189             	3.00231448e+02
190             	3.00231724e+02
191             	3.00232210e+02
192             	3.00232723e+02
193             	3.00233072e+02
194             	3.00233700e+02
195             	3.00234042e+02
196             	3.00234422e+02
197             	3.00234753e+02
198             	3.00235134e+02
199             	3.00235229e+02
200             	3.00235406e+02
201             	3.00235547e+02
202             	3.00235683e+02
203             	3.00235823e+02
204             	3.00236068e+02
205             	3.00236166e+02
206             	3.00236274e+02
207             	3.00236327e+02
208             	3.00236388e+02
209             	3.00236508e+02
210             	3.00236695e+02
211             	3.00236711e+02
212             	3.00236740e+02
213             	3.00236765e+02
214             	3.00236818e+02
215             	3.00236872e+02
216             	3.00236937e+02
217             	3.00237058e+02
218             	3.00237176e+02
219             	3.00237283e+02
220             	3.00237403e+02
221             	3.00237538e+02
222             	3.00237689e+02
223             	3.00237856e+02
224             	3.00238087e+02
225             	3.00238260e+02
226             	3.00238500e+02
227             	3.00238796e+02
228             	3.00239054e+02
229             	3.00239248e+02
230             	3.00239541e+02
231             	3.00239798e+02
232             	3.00240024e+02
233             	3.00240222e+02
234             	3.00240418e+02
235             	3.00240588e+02
236             	3.00240740e+02
237             	3.00240861e+02
238             	3.00240877e+02
239             	3.00241014e+02
240             	3.00241172e+02
241             	3.00241286e+02
242             	3.00241588e+02
243             	3.00241552e+02
244             	3.00241710e+02
245             	3.00241741e+02
246             	3.00241811e+02
247             	3.00241879e+02
248             	3.00241956e+02
249             	3.00242053e+02
250             	3.00242164e+02
251             	3.00242267e+02
252             	3.00242448e+02
253             	3.00242665e+02
254             	3.00242855e+02
255             	3.00242979e+02
256             	3.00243111e+02
257             	3.00243234e+02
258             	3.00243345e+02
259             	3.00243466e+02
260             	3.00243667e+02
261             	3.00243818e+02
262             	3.00243973e+02
263             	3.00244100e+02
264             	3.00244259e+02
265             	3.00244379e+02
266             	3.00244473e+02
267             	3.00244572e+02
268             	3.00244647e+02
269             	3.00244728e+02
270             	3.00244771e+02
271             	3.00244715e+02
272             	3.00244786e+02
273             	3.00244851e+02
274             	3.00244903e+02
275             	3.00244920e+02
276             	3.00244932e+02
277             	3.00244974e+02
278             	3.00245032e+02
279             	3.00245073e+02
280             	3.00245062e+02
281             	3.00245040e+02
282             	3.00245054e+02
283             	3.00245096e+02
284             	3.00245138e+02
285             	3.00245170e+02
286             	3.00245235e+02
287             	3.00245347e+02
288             	3.00245533e+02
289             	3.00245563e+02
290             	3.00245598e+02
291             	3.00245665e+02
292             	3.00245779e+02
293             	3.00245918e+02
294             	3.00246000e+02
295             	3.00246046e+02
296             	3.00246072e+02
297             	3.00246225e+02
298             	3.00246362e+02
299             	3.00246446e+02
300             	3.00246513e+02
301             	3.00246606e+02
302             	3.00246733e+02
303             	3.00246826e+02
304             	3.00246817e+02
305             	3.00246917e+02
306             	3.00247004e+02
307             	3.00247091e+02
308             	3.00247117e+02
309             	3.00247091e+02
310             	3.00247114e+02
311             	3.00247227e+02
312             	3.00247326e+02
313             	3.00247376e+02
314             	3.00247493e+02
315             	3.00247408e+02
316             	3.00247427e+02
317             	3.00247455e+02
318             	3.00247434e+02
319             	3.00247407e+02
320             	3.00247425e+02
321             	3.00247480e+02
322             	3.00247495e+02
323             	3.00247447e+02
324             	3.00247352e+02
325             	3.00247435e+02
326             	3.00247528e+02
327             	3.00247557e+02
328             	3.00247531e+02
329             	3.00247545e+02
330             	3.00247633e+02
331             	3.00247751e+02
332             	3.00247827e+02
333             	3.00247808e+02
334             	3.00247849e+02
335             	3.00247953e+02
336             	3.00248032e+02
337             	3.00247943e+02
338             	3.00247885e+02
339             	3.00247969e+02
340             	3.00248126e+02
341             	3.00248187e+02
342             	3.00248169e+02
343             	3.00248189e+02
344             	3.00248298e+02
345             	3.00248418e+02
346             	3.00248506e+02
347             	3.00248428e+02
348             	3.00248357e+02
349             	3.00248421e+02
350             	3.00248449e+02
351             	3.00248422e+02
352             	3.00248364e+02
353             	3.00248409e+02
354             	3.00248531e+02
355             	3.00248587e+02
356             	3.00248529e+02
357             	3.00248502e+02
358             	3.00248609e+02
359             	3.00248730e+02
360             	3.00248741e+02
361             	3.00248700e+02
362             	3.00248699e+02
363             	3.00248831e+02
364             	3.00248940e+02
365             	3.00248890e+02
366             	3.00248783e+02
367             	3.00248772e+02
368             	3.00248874e+02
369             	3.00248926e+02
370             	3.00248836e+02
371             	3.00248724e+02
372             	3.00248763e+02
373             	3.00248893e+02
374             	3.00248906e+02
375             	3.00248793e+02
376             	3.00248672e+02
377             	3.00248750e+02
378             	3.00248880e+02
379             	3.00248844e+02
380             	3.00248702e+02
381             	3.00248658e+02
382             	3.00248817e+02
383             	3.00248942e+02
384             	3.00248864e+02
385             	3.00248711e+02
386             	3.00248745e+02
387             	3.00248980e+02
388             	3.00249102e+02
389             	3.00248984e+02
390             	3.00248889e+02
391             	3.00249041e+02
392             	3.00249295e+02
393             	3.00249357e+02
394             	3.00249206e+02
395             	3.00249150e+02
396             	3.00249359e+02
397             	3.00249588e+02
398             	3.00249552e+02
399             	3.00249348e+02
400             	3.00249354e+02
401             	3.00249596e+02
402             	3.00249749e+02
403             	3.00249587e+02
404             	3.00249344e+02
405             	3.00249395e+02
406             	3.00249628e+02
407             	3.00249684e+02
408             	3.00249435e+02
409             	3.00249226e+02
410             	3.00249380e+02
411             	3.00249601e+02
412             	3.00249551e+02
413             	3.00249264e+02
414             	3.00249149e+02
415             	3.00249356e+02
416             	3.00249552e+02
417             	3.00249430e+02
418             	3.00249159e+02
419             	3.00249166e+02
420             	3.00249446e+02
421             	3.00249589e+02
422             	3.00249385e+02
423             	3.00249153e+02
424             	3.00249294e+02
425             	3.00249627e+02
426             	3.00249689e+02
427             	3.00249443e+02
428             	3.00249309e+02
429             	3.00249523e+02
430             	3.00249802e+02
431             	3.00249775e+02
432             	3.00249532e+02
433             	3.00249498e+02
434             	3.00249756e+02
435             	3.00249967e+02
436             	3.00249830e+02
437             	3.00249578e+02
438             	3.00249639e+02
439             	3.00249952e+02
440             	3.00250066e+02
441             	3.00249831e+02
442             	3.00249608e+02
443             	3.00249751e+02
444             	3.00250041e+02
445             	3.00250044e+02
446             	3.00249757e+02
447             	3.00249615e+02
448             	3.00249809e+02
449             	3.00250028e+02
450             	3.00249930e+02
451             	3.00249702e+02
452             	3.00249636e+02
453             	3.00249878e+02
454             	3.00250021e+02
455             	3.00249830e+02
456             	3.00249572e+02
457             	3.00249652e+02
458             	3.00249957e+02
459             	3.00250032e+02
460             	3.00249785e+02
461             	3.00249557e+02
462             	3.00249745e+02
463             	3.00250027e+02
464             	3.00250006e+02
465             	3.00249733e+02
466             	3.00249632e+02
467             	3.00249852e+02
468             	3.00250046e+02
469             	3.00249927e+02
470             	3.00249657e+02
471             	3.00249670e+02
472             	3.00249955e+02
473             	3.00250091e+02
474             	3.00249872e+02
475             	3.00249633e+02
476             	3.00249768e+02
477             	3.00250088e+02
478             	3.00250130e+02
479             	3.00249869e+02
480             	3.00249710e+02
481             	3.00249904e+02
482             	3.00250174e+02
483             	3.00250115e+02
484             	3.00249851e+02
485             	3.00249803e+02
486             	3.00250054e+02
487             	3.00250238e+02
488             	3.00250085e+02
489             	3.00249825e+02
490             	3.00249883e+02
491             	3.00250185e+02
492             	3.00250288e+02
493             	3.00250052e+02
494             	3.00249832e+02
495             	3.00249966e+02
496             	3.00250232e+02
497             	3.00250243e+02
498             	3.00249972e+02
499             	3.00249835e+02
500             	3.00250028e+02
501             	3.00250241e+02
502             	3.00250138e+02
503             	3.00249852e+02
504             	3.00249814e+02
505             	3.00250063e+02
506             	3.00250197e+02
507             	3.00249986e+02
508             	3.00249717e+02
509             	3.00249800e+02
510             	3.00250095e+02
511             	3.00250147e+02
512             	3.00249880e+02
513             	3.00249682e+02
514             	3.00249846e+02
515             	3.00250114e+02
516             	3.00250086e+02
517             	3.00249820e+02
518             	3.00249736e+02
519             	3.00249968e+02
520             	3.00250177e+02
521             	3.00250060e+02
522             	3.00249798e+02
523             	3.00249828e+02
524             	3.00250123e+02
525             	3.00250264e+02
526             	3.00250051e+02
527             	3.00249818e+02
528             	3.00249952e+02
529             	3.00250269e+02
530             	3.00250308e+02
531             	3.00250048e+02
532             	3.00249895e+02
533             	3.00250089e+02
534             	3.00250337e+02
535             	3.00250274e+02
536             	3.00250001e+02
537             	3.00249943e+02
538             	3.00250184e+02
539             	3.00250354e+02
540             	3.00250177e+02
541             	3.00249904e+02
542             	3.00249949e+02
543             	3.00250232e+02
544             	3.00250313e+02
545             	3.00250055e+02
546             	3.00249820e+02
547             	3.00249953e+02
548             	3.00250226e+02
549             	3.00250212e+02
550             	3.00249930e+02
551             	3.00249802e+02
552             	3.00250004e+02
553             	3.00250222e+02
554             	3.00250127e+02
555             	3.00249857e+02
556             	3.00249844e+02
557             	3.00250115e+02
558             	3.00250271e+02
559             	3.00250081e+02
560             	3.00249839e+02
561             	3.00249944e+02
562             	3.00250262e+02
563             	3.00250333e+02
564             	3.00250082e+02
565             	3.00249907e+02
566             	3.00250089e+02
567             	3.00250362e+02
568             	3.00250333e+02
569             	3.00250069e+02
570             	3.00249986e+02
571             	3.00250216e+02
572             	3.00250411e+02
573             	3.00250269e+02
574             	3.00249989e+02
575             	3.00250008e+02
576             	3.00250287e+02
577             	3.00250402e+02
578             	3.00250165e+02
579             	3.00249913e+02
580             	3.00250035e+02
581             	3.00250338e+02
582             	3.00250353e+02
583             	3.00250073e+02
584             	3.00249905e+02
585             	3.00250080e+02
586             	3.00250310e+02
587             	3.00250232e+02
588             	3.00249948e+02
589             	3.00249890e+02
590             	3.00250128e+02
591             	3.00250288e+02
592             	3.00250111e+02
593             	3.00249842e+02
594             	3.00249894e+02
595             	3.00250186e+02
596             	3.00250272e+02
597             	3.00250022e+02
598             	3.00249805e+02
599             	3.00249954e+02
600             	3.00250240e+02
601             	3.00250242e+02
602             	3.00249979e+02
603             	3.00249868e+02
604             	3.00250088e+02
605             	3.00250320e+02
606             	3.00250236e+02
607             	3.00249975e+02
608             	3.00249968e+02
609             	3.00250242e+02
610             	3.00250395e+02
611             	3.00250205e+02
612             	3.00249959e+02
613             	3.00250071e+02
614             	3.00250389e+02
615             	3.00250448e+02
616             	3.00250189e+02
617             	3.00250008e+02
618             	3.00250179e+02
619             	3.00250440e+02
620             	3.00250395e+02
621             	3.00250119e+02
622             	3.00250032e+02
623             	3.00250256e+02
624             	3.00250443e+02
625             	3.00250295e+02
626             	3.00250014e+02
627             	3.00250029e+02
628             	3.00250305e+02
629             	3.00250412e+02
630             	3.00250164e+02
631             	3.00249911e+02
632             	3.00250030e+02
633             	3.00250318e+02
634             	3.00250330e+02
635             	3.00250049e+02
636             	3.00249884e+02
637             	3.00250066e+02
638             	3.00250298e+02
639             	3.00250220e+02
640             	3.00249943e+02
641             	3.00249894e+02
642             	3.00250140e+02
643             	3.00250310e+02
644             	3.00250139e+02
645             	3.00249875e+02
646             	3.00249944e+02
647             	3.00250250e+02
648             	3.00250345e+02
649             	3.00250107e+02
650             	3.00249900e+02
651             	3.00250057e+02
652             	3.00250348e+02
653             	3.00250344e+02
654             	3.00250076e+02
655             	3.00249969e+02
656             	3.00250192e+02
657             	3.00250418e+02
658             	3.00250320e+02
659             	3.00250055e+02
660             	3.00250050e+02
661             	3.00250323e+02
662             	3.00250469e+02
663             	3.00250258e+02
664             	3.00250002e+02
665             	3.00250106e+02
666             	3.00250412e+02
667             	3.00250461e+02
668             	3.00250197e+02
669             	3.00250007e+02
670             	3.00250174e+02
671             	3.00250423e+02
672             	3.00250368e+02
673             	3.00250086e+02
674             	3.00249995e+02
675             	3.00250213e+02
676             	3.00250393e+02
677             	3.00250243e+02
678             	3.00249967e+02
679             	3.00249984e+02
680             	3.00250263e+02
681             	3.00250369e+02
682             	3.00250129e+02
683             	3.00249885e+02
684             	3.00250011e+02
685             	3.00250310e+02
686             	3.00250330e+02
687             	3.00250060e+02
688             	3.00249913e+02
689             	3.00250112e+02
690             	3.00250353e+02
691             	3.00250282e+02
692             	3.00250016e+02
693             	3.00249972e+02
694             	3.00250226e+02
695             	3.00250400e+02
696             	3.00250232e+02
697             	3.00249974e+02
698             	3.00250051e+02
699             	3.00250356e+02
700             	3.00250444e+02
701             	3.00250199e+02
702             	3.00249993e+02
703             	3.00250151e+02
704             	3.00250435e+02
705             	3.00250424e+02
706             	3.00250153e+02
707             	3.00250038e+02
708             	3.00250247e+02
709             	3.00250459e+02
710             	3.00250348e+02
711             	3.00250070e+02
712             	3.00250065e+02
713             	3.00250325e+02
714             	3.00250455e+02
715             	3.00250234e+02
716             	3.00249971e+02
717             	3.00250070e+02
718             	3.00250370e+02
719             	3.00250409e+02
720             	3.00250135e+02
721             	3.00249950e+02
722             	3.00250119e+02
723             	3.00250369e+02
724             	3.00250318e+02
725             	3.00250041e+02
726             	3.00249966e+02
727             	3.00250199e+02
728             	3.00250387e+02
729             	3.00250242e+02
730             	3.00249972e+02
731             	3.00250007e+02
732             	3.00250298e+02
733             	3.00250404e+02
734             	3.00250173e+02
735             	3.00249939e+02
736             	3.00250079e+02
737             	3.00250384e+02
738             	3.00250406e+02
739             	3.00250137e+02
740             	3.00249991e+02
741             	3.00250186e+02
742             	3.00250425e+02
743             	3.00250350e+02
744             	3.00250078e+02
745             	3.00250039e+02
746             	3.00250289e+02
747             	3.00250452e+02
748             	3.00250272e+02
749             	3.00250007e+02
750             	3.00250077e+02
751             	3.00250374e+02
752             	3.00250452e+02
753             	3.00250197e+02
754             	3.00249986e+02
755             	3.00250137e+02
756             	3.00250407e+02
757             	3.00250388e+02
758             	3.00250112e+02
759             	3.00249995e+02
760             	3.00250203e+02
761             	3.00250407e+02
762             	3.00250289e+02
763             	3.00250010e+02
764             	3.00250001e+02
765             	3.00250267e+02
766             	3.00250400e+02
767             	3.00250180e+02
768             	3.00249921e+02
769             	3.00250030e+02
770             	3.00250337e+02
771             	3.00250376e+02
772             	3.00250108e+02
773             	3.00249933e+02
774             	3.00250113e+02
775             	3.00250371e+02
776             	3.00250322e+02
777             	3.00250049e+02
778             	3.00249980e+02
779             	3.00250216e+02
780             	3.00250403e+02
781             	3.00250255e+02
782             	3.00249986e+02
783             	3.00250027e+02
784             	3.00250324e+02
785             	3.00250434e+02
786             	3.00250196e+02
787             	3.00249964e+02
788             	3.00250100e+02
789             	3.00250396e+02
790             	3.00250411e+02
791             	3.00250144e+02
792             	3.00250005e+02
793             	3.00250195e+02
794             	3.00250423e+02
795             	3.00250337e+02
796             	3.00250060e+02
797             	3.00250018e+02
798             	3.00250267e+02
799             	3.00250424e+02
800             	3.00250237e+02
801             	3.00249971e+02
802             	3.00250043e+02
803             	3.00250343e+02
804             	3.00250412e+02
805             	3.00250156e+02
806             	3.00249948e+02
807             	3.00250100e+02
808             	3.00250373e+02
809             	3.00250352e+02
810             	3.00250076e+02
811             	3.00249968e+02
812             	3.00250184e+02
813             	3.00250390e+02
814             	3.00250273e+02
815             	3.00249993e+02
816             	3.00249998e+02
817             	3.00250274e+02
818             	3.00250408e+02
819             	3.00250186e+02
820             	3.00249933e+02
821             	3.00250051e+02
822             	3.00250361e+02
823             	3.00250399e+02
824             	3.00250128e+02
825             	3.00249954e+02
826             	3.00250136e+02
827             	3.00250390e+02
828             	3.00250336e+02
829             	3.00250065e+02
830             	3.00250005e+02
831             	3.00250243e+02
832             	3.00250422e+02
833             	3.00250266e+02
834             	3.00249995e+02
835             	3.00250039e+02
836             	3.00250331e+02
837             	3.00250431e+02
838             	3.00250188e+02
839             	3.00249958e+02
840             	3.00250094e+02
841             	3.00250387e+02
842             	3.00250394e+02
843             	3.00250119e+02
844             	3.00249979e+02
845             	3.00250176e+02
846             	3.00250400e+02
847             	3.00250309e+02
848             	3.00250035e+02
849             	3.00250001e+02
850             	3.00250255e+02
851             	3.00250408e+02
852             	3.00250214e+02
853             	3.00249951e+02
854             	3.00250031e+02
855             	3.00250332e+02
856             	3.00250400e+02
857             	3.00250143e+02
858             	3.00249943e+02
859             	3.00250104e+02
860             	3.00250374e+02
861             	3.00250349e+02
862             	3.00250077e+02
863             	3.00249977e+02
864             	3.00250196e+02
865             	3.00250398e+02
866             	3.00250274e+02
867             	3.00250000e+02
868             	3.00250007e+02
869             	3.00250285e+02
870             	3.00250414e+02
871             	3.00250196e+02
872             	3.00249942e+02
873             	3.00250059e+02
874             	3.00250367e+02
875             	3.00250402e+02
876             	3.00250131e+02
877             	3.00249965e+02
878             	3.00250149e+02
879             	3.00250396e+02
880             	3.00250336e+02
881             	3.00250062e+02
882             	3.00250001e+02
883             	3.00250240e+02
884             	3.00250415e+02
885             	3.00250252e+02
886             	3.00249982e+02
887             	3.00250030e+02
888             	3.00250322e+02
889             	3.00250419e+02
890             	3.00250174e+02
891             	3.00249946e+02
892             	3.00250085e+02
893             	3.00250373e+02
894             	3.00250374e+02
895             	3.00250102e+02
896             	3.00249968e+02
897             	3.00250166e+02
898             	3.00250390e+02
899             	3.00250295e+02
900             	3.00250018e+02
901             	3.00249990e+02
902             	3.00250246e+02
903             	3.00250396e+02
904             	3.00250200e+02
905             	3.00249940e+02
906             	3.00250026e+02
907             	3.00250332e+02
908             	3.00250395e+02
909             	3.00250135e+02
910             	3.00249940e+02
911             	3.00250105e+02
912             	3.00250373e+02
913             	3.00250344e+02
914             	3.00250074e+02
915             	3.00249981e+02
916             	3.00250206e+02
917             	3.00250408e+02
918             	3.00250280e+02
919             	3.00250008e+02
920             	3.00250024e+02
921             	3.00250304e+02
922             	3.00250430e+02
923             	3.00250200e+02
924             	3.00249953e+02
925             	3.00250077e+02
926             	3.00250383e+02
927             	3.00250412e+02
928             	3.00250141e+02
929             	3.00249978e+02
930             	3.00250161e+02
931             	3.00250405e+02
932             	3.00250339e+02
933             	3.00250063e+02