# Region        : cellZone pcb
# Cells         : 559
# Volume        : 9.85471784e-01
# Time          	volAverage(T)
1               	3.00008914e+02
2               	3.00026340e+02
3               	3.00049275e+02
4               	3.00076226e+02
5               	3.00099650e+02
6               	3.00124368e+02
7               	3.00151881e+02
8               	3.00181988e+02
9               	3.00217384e+02
10              	3.00256910e+02
11              	3.00299938e+02
12              	3.00344608e+02
13              	3.00393752e+02
14              	3.00444384e+02
15              	3.00492125e+02
16              	3.00539987e+02
17              	3.00591190e+02
18              	3.00643983e+02
19              	3.00695679e+02
20              	3.00747215e+02
21              	3.00799408e+02
22              	3.00853364e+02
23              	3.00907884e+02
24              	3.00963320e+02
25              	3.01020066e+02
26              	3.01078483e+02
27              	3.01136391e+02
28              	3.01193652e+02
29              	3.01249877e+02
30              	3.01306840e+02
31              	3.01364752e+02
32              	3.01423584e+02
33              	3.01483759e+02
34              	3.01546253e+02
35              	3.01609537e+02
36              	3.01674324e+02
37              	3.01737411e+02
38              	3.01797946e+02
39              	3.01858382e+02
40              	3.01918105e+02
41              	3.01979206e+02
42              	3.02038693e+02
43              	3.02097398e+02
44              	3.02154096e+02
45              	3.02209933e+02
46              	3.02267467e+02
47              	3.02325927e+02
48              	3.02380676e+02
49              	3.02434472e+02
50              	3.02488029e+02
51              	3.02546319e+02
52              	3.02602040e+02
53              	3.02655630e+02
54              	3.02708957e+02
55              	3.02761571e+02
56              	3.02816602e+02
57              	3.02875919e+02
58              	3.02931656e+02
59              	3.02984354e+02
60              	3.03038060e+02
61              	3.03091896e+02
62              	3.03145513e+02
63              	3.03200030e+02
64              	3.03252552e+02
65              	3.03302356e+02
66              	3.03351418e+02
67              	3.03399266e+02
68              	3.03448059e+02
69              	3.03495402e+02
70              	3.03540185e+02
71              	3.03583169e+02
72              	3.03628037e+02
73              	3.03676090e+02
74              	3.03725069e+02
75              	3.03771377e+02
76              	3.03816560e+02
77              	3.03862028e+02
78              	3.03910067e+02
79              	3.03960616e+02
80              	3.04009702e+02
81              	3.04060241e+02
82              	3.04106498e+02
83              	3.04155066e+02
84              	3.04202248e+02
85              	3.04246351e+02
86              	3.04291861e+02
87              	3.04336972e+02
88              	3.04386879e+02
89              	3.04434111e+02
90              	3.04478635e+02
91              	3.04522142e+02
92              	3.04560736e+02
93              	3.04600214e+02
94              	3.04635273e+02
95              	3.04675514e+02
96              	3.04715044e+02
97              	3.04752314e+02
98              	3.04789124e+02
99              	3.04825992e+02
100             	3.04867417e+02
101             	3.04910003e+02
102             	3.04949527e+02
103             	3.04987557e+02
104             	3.05029863e+02
105             	3.05070793e+02
106             	3.05108444e+02
107             	3.05143881e+02
108             	3.05178456e+02
109             	3.05211951e+02
110             	3.05244971e+02
111             	3.05278410e+02
112             	3.05312584e+02
113             	3.05347155e+02
114             	3.05377360e+02
115             	3.05407422e+02
116             	3.05439831e+02
117             	3.05472651e+02
118             	3.05505158e+02
119             	3.05537099e+02
120             	3.05568349e+02
121             	3.05599182e+02
122             	3.05632638e+02
123             	3.05665595e+02
124             	3.05699053e+02
125             	3.05732148e+02
126             	3.05763995e+02
127             	3.05793917e+02
128             	3.05822805e+02
129             	3.05851321e+02
130             	3.05879692e+02
131             	3.05907464e+02
132             	3.05934744e+02
133             	3.05962016e+02
134             	3.05988799e+02
135             	3.06015189e+02
136             	3.06041195e+02
137             	3.06066866e+02
138             	3.06092458e+02
139             	3.06117626e+02
140             	3.06142684e+02
141             	3.06167613e+02
142             	3.06192606e+02
143             	3.06217547e+02
144             	3.06242446e+02
145             	3.06267217e+02
146             	3.06292068e+02
147             	3.06317364e+02
148             	3.06342497e+02
149             	3.06366928e+02
150             	3.06390464e+02
151             	3.06413296e+02
152             	3.06435945e+02
153             	3.06458231e+02
154             	3.06479874e+02
155             	3.06500893e+02
156             	3.06521808e+02
157             	3.06542664e+02
158             	3.06563231e+02
159             	3.06583366e+02
160             	3.06603603e+02
161             	3.06624027e+02
162             	3.06644714e+02
163             	3.06664822e+02
164             	3.06684682e+02
165             	3.06704667e+02
166             	3.06724515e+02
167             	3.06744199e+02
168             	3.06763649e+02
169             	3.06782579e+02
170             	3.06801719e+02
171             	3.06819782e+02
172             	3.06837804e+02
173             	3.06854879e+02
174             	3.06871380e+02
175             	3.06887566e+02
176             	3.06903544e+02
177             	3.06919573e+02
178             	3.06935396e+02
179             	3.06951170e+02
180             	3.06967207e+02
181             	3.06983678e+02
182             	3.07000265e+02
183             	3.07017163e+02
184             	3.07033540e+02
185             	3.07049235e+02
186             	3.07064459e+02
187             	3.07079466e+02
188             	3.07093947e+02
189             	3.07107960e+02
190             	3.07121822e+02
191             	3.07135398e+02
192             	3.07148870e+02
193             	3.07162186e+02
194             	3.07175140e+02
195             	3.07188058e+02
196             	3.07201102e+02
197             	3.07214269e+02
198             	3.07227176e+02
199             	3.07239766e+02
200             	3.07252517e+02
201             	3.07265463e+02
202             	3.07278782e+02
203             	3.07291957e+02
204             	3.07304707e+02
205             	3.07317226e+02
206             	3.07329282e+02
207             	3.07341014e+02
208             	3.07352388e+02
209             	3.07363368e+02
210             	3.07374270e+02
211             	3.07385164e+02
212             	3.07396076e+02
213             	3.07406755e+02
214             	3.07417184e+02
215             	3.07427567e+02
216             	3.07438492e+02
217             	3.07449328e+02
218             	3.07459475e+02
219             	3.07468787e+02
220             	3.07477822e+02
221             	3.07487045e+02
222             	3.07496194e+02
223             	3.07505234e+02
224             	3.07514200e+02
225             	3.07523384e+02
226             	3.07533117e+02
227             	3.07542808e+02
228             	3.07552291e+02
229             	3.07561500e+02
230             	3.07570373e+02
231             	3.07578787e+02
232             	3.07586939e+02
233             	3.07594827e+02
234             	3.07602720e+02
235             	3.07610718e+02
236             	3.07618866e+02
237             	3.07627032e+02
238             	3.07634875e+02
239             	3.07642477e+02
240             	3.07649929e+02
241             	3.07657356e+02
242             	3.07664576e+02
243             	3.07671266e+02
244             	3.07677833e+02
245             	3.07684390e+02
246             	3.07691104e+02
247             	3.07697730e+02
248             	3.07704154e+02
249             	3.07710561e+02
250             	3.07717104e+02
251             	3.07723801e+02
252             	3.07730323e+02
253             	3.07736489e+02
254             	3.07742516e+02
255             	3.07748756e+02
256             	3.07755252e+02
257             	3.07761664e+02
258             	3.07767799e+02
259             	3.07773702e+02
260             	3.07779536e+02
261             	3.07785297e+02
262             	3.07790857e+02
263             	3.07796110e+02
264             	3.07801122e+02
265             	3.07806169e+02
266             	3.07811310e+02
267             	3.07816386e+02
268             	3.07821371e+02
269             	3.07826277e+02
270             	3.07831250e+02
271             	3.07836322e+02
272             	3.07841272e+02
273             	3.07845979e+02
274             	3.07850551e+02
275             	3.07855183e+02
276             	3.07859882e+02
277             	3.07864419e+02
278             	3.07868768e+02
279             	3.07873071e+02
280             	3.07877509e+02
281             	3.07882017e+02
282             	3.07886348e+02
283             	3.07890369e+02
284             	3.07894248e+02
285             	3.07898099e+02
286             	3.07901885e+02
287             	3.07905508e+02
288             	3.07908911e+02
289             	3.07912363e+02
290             	3.07916019e+02
291             	3.07919903e+02
292             	3.07923794e+02
293             	3.07927591e+02
294             	3.07931487e+02
295             	3.07935478e+02
296             	3.07939423e+02
297             	3.07943022e+02
298             	3.07946195e+02
299             	3.07949272e+02
300             	3.07952515e+02
301             	3.07955654e+02
302             	3.07958524e+02
303             	3.07961344e+02
304             	3.07964205e+02
305             	3.07967254e+02
306             	3.07970366e+02
307             	3.07973250e+02
308             	3.07975983e+02
309             	3.07978868e+02
310             	3.07981980e+02
311             	3.07985080e+02
312             	3.07988001e+02
313             	3.07990850e+02
314             	3.07993752e+02
315             	3.07996719e+02
316             	3.07999562e+02
317             	3.08002072e+02
318             	3.08004403e+02
319             	3.08006787e+02
320             	3.08009358e+02
321             	3.08011936e+02
322             	3.08014291e+02
323             	3.08016588e+02
324             	3.08018964e+02
325             	3.08021425e+02
326             	3.08023726e+02
327             	3.08025722e+02
328             	3.08027485e+02
329             	3.08029375e+02
330             	3.08031422e+02
331             	3.08033400e+02
332             	3.08035139e+02
333             	3.08036849e+02
334             	3.08038707e+02
335             	3.08040731e+02
336             	3.08042733e+02
337             	3.08044612e+02
338             	3.08046441e+02
339             	3.08048393e+02
340             	3.08050482e+02
341             	3.08052485e+02
342             	3.08054386e+02
343             	3.08056208e+02
344             	3.08058118e+02
345             	3.08060133e+02
346             	3.08062036e+02
347             	3.08063731e+02
348             	3.08065343e+02
349             	3.08066999e+02
350             	3.08068700e+02
351             	3.08070267e+02
352             	3.08071590e+02
353             	3.08072885e+02
354             	3.08074432e+02
355             	3.08076166e+02
356             	3.08077779e+02
357             	3.08079162e+02
358             	3.08080615e+02
359             	3.08082127e+02
360             	3.08083666e+02
361             	3.08085078e+02
362             	3.08086271e+02
363             	3.08087483e+02
364             	3.08088894e+02
365             	3.08090412e+02
366             	3.08091819e+02
367             	3.08093042e+02
368             	3.08094255e+02
369             	3.08095557e+02
370             	3.08096929e+02
371             	3.08098142e+02
372             	3.08099210e+02
373             	3.08100276e+02
374             	3.08101470e+02
375             	3.08102661e+02
376             	3.08103681e+02
377             	3.08104553e+02
378             	3.08105432e+02
379             	3.08106439e+02
380             	3.08107430e+02
381             	3.08108238e+02
382             	3.08108868e+02
383             	3.08109610e+02
384             	3.08110530e+02
385             	3.08111467e+02
386             	3.08112233e+02
387             	3.08112909e+02
388             	3.08113740e+02
389             	3.08114811e+02
390             	3.08115893e+02
391             	3.08116760e+02
392             	3.08117574e+02
393             	3.08118513e+02
394             	3.08119656e+02
395             	3.08120754e+02
396             	3.08121603e+02
397             	3.08122297e+02
398             	3.08123100e+02
399             	3.08124094e+02
400             	3.08125034e+02
401             	3.08125766e+02
402             	3.08126422e+02
403             	3.08127234e+02
404             	3.08128179e+02
405             	3.08129078e+02
406             	3.08129747e+02
407             	3.08130315e+02
408             	3.08131032e+02
409             	3.08131958e+02
410             	3.08132850e+02
411             	3.08133572e+02
412             	3.08134255e+02
413             	3.08135131e+02
414             	3.08136211e+02
415             	3.08137208e+02
416             	3.08137921e+02
417             	3.08138530e+02
418             	3.08139240e+02
419             	3.08140041e+02
420             	3.08140760e+02
421             	3.08141252e+02
422             	3.08141653e+02
423             	3.08142196e+02
424             	3.08142905e+02
425             	3.08143580e+02
426             	3.08144061e+02
427             	3.08144488e+02
428             	3.08145054e+02
429             	3.08145740e+02
430             	3.08146347e+02
431             	3.08146742e+02
432             	3.08147092e+02
433             	3.08147587e+02
434             	3.08148196e+02
435             	3.08148738e+02
436             	3.08149109e+02
437             	3.08149485e+02
438             	3.08150032e+02
439             	3.08150687e+02
440             	3.08151229e+02
441             	3.08151567e+02
442             	3.08151923e+02
443             	3.08152440e+02
444             	3.08153034e+02
445             	3.08153524e+02
446             	3.08153869e+02
447             	3.08154247e+02
448             	3.08154792e+02
449             	3.08155403e+02
450             	3.08155854e+02
451             	3.08156125e+02
452             	3.08156417e+02
453             	3.08156889e+02
454             	3.08157404e+02
455             	3.08157766e+02
456             	3.08157997e+02
457             	3.08158279e+02
458             	3.08158756e+02
459             	3.08159249e+02
460             	3.08159560e+02
461             	3.08159761e+02
462             	3.08160058e+02
463             	3.08160540e+02
464             	3.08161021e+02
465             	3.08161318e+02
466             	3.08161503e+02
467             	3.08161799e+02
468             	3.08162281e+02
469             	3.08162744e+02
470             	3.08162990e+02
471             	3.08163100e+02
472             	3.08163328e+02
473             	3.08163754e+02
474             	3.08164160e+02
475             	3.08164320e+02
476             	3.08164371e+02
477             	3.08164583e+02
478             	3.08165000e+02
479             	3.08165394e+02
480             	3.08165573e+02
481             	3.08165651e+02
482             	3.08165859e+02
483             	3.08166260e+02
484             	3.08166609e+02
485             	3.08166749e+02
486             	3.08166823e+02
487             	3.08167055e+02
488             	3.08167468e+02
489             	3.08167849e+02
490             	3.08168025e+02
491             	3.08168123e+02
492             	3.08168368e+02
493             	3.08168750e+02
494             	3.08169096e+02
495             	3.08169260e+02
496             	3.08169363e+02
497             	3.08169614e+02
498             	3.08170006e+02
499             	3.08170337e+02
500             	3.08170466e+02
501             	3.08170530e+02
502             	3.08170749e+02
503             	3.08171111e+02
504             	3.08171430e+02
505             	3.08171577e+02
506             	3.08171673e+02
507             	3.08171909e+02
508             	3.08172270e+02
509             	3.08172585e+02
510             	3.08172695e+02
511             	3.08172758e+02
512             	3.08172977e+02
513             	3.08173316e+02
514             	3.08173583e+02
515             	3.08173689e+02
516             	3.08173796e+02
517             	3.08174113e+02
518             	3.08174517e+02
519             	3.08174767e+02
520             	3.08174810e+02
521             	3.08174840e+02
522             	3.08175030e+02
523             	3.08175304e+02
524             	3.08175453e+02
525             	3.08175439e+02
526             	3.08175436e+02
527             	3.08175610e+02
528             	3.08175858e+02
529             	3.08175983e+02
530             	3.08175962e+02
531             	3.08175974e+02
532             	3.08176171e+02
533             	3.08176396e+02
534             	3.08176483e+02
535             	3.08176456e+02
536             	3.08176459e+02
537             	3.08176637e+02
538             	3.08176850e+02
539             	3.08176895e+02
540             	3.08176829e+02
541             	3.08176829e+02
542             	3.08177012e+02
543             	3.08177207e+02
544             	3.08177223e+02
545             	3.08177169e+02
546             	3.08177257e+02
547             	3.08177534e+02
548             	3.08177778e+02
549             	3.08177820e+02
550             	3.08177773e+02
551             	3.08177869e+02
552             	3.08178157e+02
553             	3.08178402e+02
554             	3.08178428e+02
555             	3.08178355e+02
556             	3.08178426e+02
557             	3.08178701e+02
558             	3.08178976e+02
559             	3.08179074e+02
560             	3.08179092e+02
561             	3.08179245e+02
562             	3.08179584e+02
563             	3.08179879e+02
564             	3.08179951e+02
565             	3.08179943e+02
566             	3.08180109e+02
567             	3.08180506e+02
568             	3.08180835e+02
569             	3.08180857e+02
570             	3.08180757e+02
571             	3.08180813e+02
572             	3.08181053e+02
573             	3.08181266e+02
574             	3.08181287e+02
575             	3.08181253e+02
576             	3.08181381e+02
577             	3.08181675e+02
578             	3.08181926e+02
579             	3.08182000e+02
580             	3.08182023e+02
581             	3.08182185e+02
582             	3.08182428e+02
583             	3.08182590e+02
584             	3.08182584e+02
585             	3.08182548e+02
586             	3.08182654e+02
587             	3.08182853e+02
588             	3.08182957e+02
589             	3.08182850e+02
590             	3.08182678e+02
591             	3.08182652e+02
592             	3.08182707e+02
593             	3.08182682e+02
594             	3.08182504e+02
595             	3.08182328e+02
596             	3.08182323e+02
597             	3.08182432e+02
598             	3.08182429e+02
599             	3.08182242e+02
600             	3.08182094e+02
601             	3.08182140e+02
602             	3.08182304e+02
603             	3.08182350e+02
604             	3.08182231e+02
605             	3.08182187e+02
606             	3.08182292e+02
607             	3.08182464e+02
608             	3.08182509e+02
609             	3.08182417e+02
610             	3.08182377e+02
611             	3.08182536e+02
612             	3.08182759e+02
613             	3.08182865e+02
614             	3.08182873e+02
615             	3.08182960e+02
616             	3.08183219e+02
617             	3.08183449e+02
618             	3.08183465e+02
619             	3.08183333e+02
620             	3.08183280e+02
621             	3.08183400e+02
622             	3.08183494e+02
623             	3.08183375e+02
624             	3.08183135e+02
625             	3.08183041e+02
626             	3.08183164e+02
627             	3.08183258e+02
628             	3.08183093e+02
629             	3.08182819e+02
630             	3.08182704e+02
631             	3.08182783e+02
632             	3.08182812e+02
633             	3.08182661e+02
634             	3.08182445e+02
635             	3.08182402e+02
636             	3.08182567e+02
637             	3.08182706e+02
638             	3.08182622e+02
639             	3.08182421e+02
640             	3.08182367e+02
641             	3.08182523e+02
642             	3.08182659e+02
643             	3.08182607e+02
644             	3.08182467e+02
645             	3.08182486e+02
646             	3.08182696e+02
647             	3.08182886e+02
648             	3.08182889e+02
649             	3.08182833e+02
650             	3.08182926e+02
651             	3.08183167e+02
652             	3.08183370e+02
653             	3.08183381e+02
654             	3.08183326e+02
655             	3.08183417e+02
656             	3.08183675e+02
657             	3.08183896e+02
658             	3.08183905e+02
659             	3.08183873e+02
660             	3.08184030e+02
661             	3.08184304e+02
662             	3.08184485e+02
663             	3.08184495e+02
664             	3.08184468e+02
665             	3.08184544e+02
666             	3.08184726e+02
667             	3.08184831e+02
668             	3.08184741e+02
669             	3.08184638e+02
670             	3.08184714e+02
671             	3.08184919e+02
672             	3.08185035e+02
673             	3.08184948e+02
674             	3.08184875e+02
675             	3.08184944e+02
676             	3.08185083e+02
677             	3.08185121e+02
678             	3.08184982e+02
679             	3.08184831e+02
680             	3.08184851e+02
681             	3.08184944e+02
682             	3.08184901e+02
683             	3.08184694e+02
684             	3.08184515e+02
685             	3.08184518e+02
686             	3.08184591e+02
687             	3.08184511e+02
688             	3.08184301e+02
689             	3.08184158e+02
690             	3.08184157e+02
691             	3.08184189e+02
692             	3.08184093e+02
693             	3.08183891e+02
694             	3.08183780e+02
695             	3.08183853e+02
696             	3.08183918e+02
697             	3.08183825e+02
698             	3.08183645e+02
699             	3.08183594e+02
700             	3.08183732e+02
701             	3.08183844e+02
702             	3.08183751e+02
703             	3.08183556e+02
704             	3.08183495e+02
705             	3.08183619e+02
706             	3.08183740e+02
707             	3.08183702e+02
708             	3.08183570e+02
709             	3.08183570e+02
710             	3.08183799e+02
711             	3.08184009e+02
712             	3.08183984e+02
713             	3.08183861e+02
714             	3.08183904e+02
715             	3.08184163e+02
716             	3.08184405e+02
717             	3.08184434e+02
718             	3.08184398e+02
719             	3.08184473e+02
720             	3.08184674e+02
721             	3.08184829e+02
722             	3.08184749e+02
723             	3.08184588e+02
724             	3.08184582e+02
725             	3.08184761e+02
726             	3.08184894e+02
727             	3.08184791e+02
728             	3.08184602e+02
729             	3.08184571e+02
730             	3.08184686e+02
731             	3.08184715e+02
732             	3.08184567e+02
733             	3.08184390e+02
734             	3.08184364e+02
735             	3.08184485e+02
736             	3.08184564e+02
737             	3.08184454e+02
738             	3.08184298e+02
739             	3.08184311e+02
740             	3.08184468e+02
741             	3.08184574e+02
742             	3.08184456e+02
743             	3.08184304e+02
744             	3.08184336e+02
745             	3.08184430e+02
746             	3.08184432e+02
747             	3.08184272e+02
748             	3.08184112e+02
749             	3.08184124e+02
750             	3.08184222e+02
751             	3.08184262e+02
752             	3.08184149e+02
753             	3.08184015e+02
754             	3.08184051e+02
755             	3.08184195e+02
756             	3.08184226e+02
757             	3.08184078e+02
758             	3.08183966e+02
759             	3.08184052e+02
760             	3.08184210e+02
761             	3.08184226e+02
762             	3.08184079e+02
763             	3.08183962e+02
764             	3.08184025e+02
765             	3.08184173e+02
766             	3.08184216e+02
767             	3.08184126e+02
768             	3.08184061e+02
769             	3.08184199e+02
770             	3.08184380e+02
771             	3.08184363e+02
772             	3.08184209e+02
773             	3.08184100e+02
774             	3.08184177e+02
775             	3.08184260e+02
776             	3.08184148e+02
777             	3.08183923e+02
778             	3.08183756e+02
779             	3.08183789e+02
780             	3.08183854e+02
781             	3.08183731e+02
782             	3.08183521e+02
783             	3.08183453e+02
784             	3.08183566e+02
785             	3.08183692e+02
786             	3.08183647e+02
787             	3.08183518e+02
788             	3.08183543e+02
789             	3.08183752e+02
790             	3.08183893e+02
791             	3.08183809e+02
792             	3.08183629e+02
793             	3.08183579e+02
794             	3.08183686e+02
795             	3.08183741e+02
796             	3.08183588e+02
797             	3.08183361e+02
798             	3.08183278e+02
799             	3.08183383e+02
800             	3.08183446e+02
801             	3.08183319e+02
802             	3.08183127e+02
803             	3.08183083e+02
804             	3.08183220e+02
805             	3.08183318e+02
806             	3.08183193e+02
807             	3.08182997e+02
808             	3.08182943e+02
809             	3.08183062e+02
810             	3.08183162e+02
811             	3.08183113e+02
812             	3.08183000e+02
813             	3.08183010e+02
814             	3.08183173e+02
815             	3.08183353e+02
816             	3.08183290e+02
817             	3.08183122e+02
818             	3.08183128e+02
819             	3.08183303e+02
820             	3.08183432e+02
821             	3.08183333e+02
822             	3.08183211e+02
823             	3.08183245e+02
824             	3.08183371e+02
825             	3.08183422e+02
826             	3.08183260e+02
827             	3.08183053e+02
828             	3.08182987e+02
829             	3.08183048e+02
830             	3.08183067e+02
831             	3.08182900e+02
832             	3.08182706e+02
833             	3.08182701e+02
834             	3.08182822e+02
835             	3.08182850e+02
836             	3.08182678e+02
837             	3.08182516e+02
838             	3.08182552e+02
839             	3.08182609e+02
840             	3.08182556e+02
841             	3.08182382e+02
842             	3.08182243e+02
843             	3.08182274e+02
844             	3.08182355e+02
845             	3.08182289e+02
846             	3.08182099e+02
847             	3.08181956e+02
848             	3.08181953e+02
849             	3.08181948e+02
850             	3.08181767e+02
851             	3.08181473e+02
852             	3.08181265e+02
853             	3.08181229e+02
854             	3.08181209e+02
855             	3.08181030e+02
856             	3.08180768e+02
857             	3.08180631e+02
858             	3.08180696e+02
859             	3.08180808e+02
860             	3.08180724e+02
861             	3.08180516e+02
862             	3.08180496e+02
863             	3.08180775e+02
864             	3.08181007e+02
865             	3.08180963e+02
866             	3.08180790e+02
867             	3.08180755e+02
868             	3.08180895e+02
869             	3.08181021e+02
870             	3.08180952e+02
871             	3.08180820e+02
872             	3.08180807e+02
873             	3.08181037e+02
874             	3.08181156e+02
875             	3.08180957e+02
876             	3.08180653e+02
877             	3.08180543e+02
878             	3.08180626e+02
879             	3.08180695e+02
880             	3.08180549e+02
881             	3.08180269e+02
882             	3.08180166e+02
883             	3.08180284e+02
884             	3.08180370e+02
885             	3.08180284e+02
886             	3.08180160e+02
887             	3.08180212e+02
888             	3.08180431e+02
889             	3.08180625e+02
890             	3.08180641e+02
891             	3.08180593e+02
892             	3.08180683e+02
893             	3.08180894e+02
894             	3.08181043e+02
895             	3.08180980e+02
896             	3.08180792e+02
897             	3.08180706e+02
898             	3.08180783e+02
899             	3.08180812e+02
900             	3.08180666e+02
901             	3.08180500e+02
902             	3.08180473e+02
903             	3.08180525e+02
904             	3.08180553e+02
905             	3.08180425e+02
906             	3.08180262e+02
907             	3.08180317e+02
908             	3.08180509e+02
909             	3.08180582e+02
910             	3.08180541e+02
911             	3.08180471e+02
912             	3.08180525e+02
913             	3.08180667e+02
914             	3.08180708e+02
915             	3.08180604e+02
916             	3.08180499e+02
917             	3.08180571e+02
918             	3.08180755e+02
919             	3.08180783e+02
920             	3.08180678e+02
921             	3.08180577e+02
922             	3.08180676e+02
923             	3.08180808e+02
924             	3.08180739e+02
925             	3.08180452e+02
926             	3.08180145e+02
927             	3.08180056e+02
928             	3.08180062e+02
929             	3.08179909e+02
930             	3.08179632e+02
931             	3.08179475e+02
932             	3.08179572e+02
933             	3.08179714e+02