# Region        : cellZone fluid
# Cells         : 9361
# Volume        : 1.82603900e+01
# Time          	volAverage(T)
1               	3.00000039e+02
2               	3.00000096e+02
3               	3.00000516e+02
4               	3.00001230e+02
5               	3.00001865e+02
6               	3.00002606e+02
7               	3.00003403e+02
8               	3.00004429e+02
9               	3.00005583e+02
10              	3.00007095e+02
11              	3.00008605e+02
12              	3.00010114e+02
13              	3.00011673e+02
14              	3.00013367e+02
15              	3.00015079e+02
16              	3.00016879e+02
17              	3.00018758e+02
18              	3.00020919e+02
19              	3.00022722e+02
20              	3.00024671e+02
21              	3.00026976e+02
22              	3.00029623e+02
23              	3.00032316e+02
24              	3.00034782e+02
25              	3.00037484e+02
26              	3.00039969e+02
27              	3.00042550e+02
28              	3.00044647e+02
29              	3.00047224e+02
30              	3.00049616e+02
31              	3.00052148e+02
32              	3.00055095e+02
33              	3.00057787e+02
34              	3.00060502e+02
35              	3.00063337e+02
36              	3.00066923e+02
37              	3.00070348e+02
38              	3.00072906e+02
39              	3.00076112e+02
40              	3.00078478e+02
41              	3.00081306e+02
42              	3.00084227e+02
43              	3.00086855e+02
44              	3.00089033e+02
45              	3.00091698e+02
46              	3.00094646e+02
47              	3.00097166e+02
48              	3.00100238e+02
49              	3.00103551e+02
50              	3.00107092e+02
51              	3.00109491e+02
52              	3.00112329e+02
53              	3.00114495e+02
54              	3.00117048e+02
55              	3.00119073e+02
56              	3.00121395e+02
57              	3.00124344e+02
58              	3.00126831e+02
59              	3.00129014e+02
60              	3.00131634e+02
61              	3.00133969e+02
62              	3.00136607e+02
63              	3.00139061e+02
64              	3.00141766e+02
65              	3.00144505e+02
66              	3.00147178e+02
67              	3.00150380e+02
68              	3.00153041e+02
69              	3.00154979e+02
70              	3.00157123e+02
71              	3.00159600e+02
72              	3.00161848e+02
73              	3.00163930e+02
74              	3.00166516e+02
75              	3.00169618e+02
76              	3.00172600e+02
77              	3.00174479e+02
78              	3.00176846e+02
79              	3.00178584e+02
80              	3.00180192e+02
81              	3.00181358e+02
82              	3.00183060e+02
83              	3.00185070e+02
84              	3.00186596e+02
85              	3.00188095e+02
86              	3.00190174e+02
87              	3.00192855e+02
88              	3.00195230e+02
89              	3.00197037e+02
90              	3.00199300e+02
91              	3.00201592e+02
92              	3.00203155e+02
93              	3.00204494e+02
94              	3.00205924e+02
95              	3.00207871e+02
96              	3.00209677e+02
97              	3.00211777e+02
98              	3.00214353e+02
99              	3.00216651e+02
100             	3.00217967e+02
101             	3.00219531e+02
102             	3.00221367e+02
103             	3.00222902e+02
104             	3.00224340e+02
105             	3.00225466e+02
106             	3.00226481e+02
107             	3.00228254e+02
108             	3.00229680e+02
109             	3.00230704e+02
110             	3.00232056e+02
111             	3.00233700e+02
112             	3.00235565e+02
113             	3.00236562e+02
114             	3.00237584e+02
115             	3.00238564e+02
116             	3.00239897e+02
117             	3.00241259e+02
118             	3.00242569e+02
119             	3.00243582e+02
120             	3.00244605e+02
121             	3.00246585e+02
122             	3.00248305e+02
123             	3.00249874e+02
124             	3.00251232e+02
125             	3.00252445e+02
126             	3.00252963e+02
127             	3.00253294e+02
128             	3.00253747e+02
129             	3.00254409e+02
130             	3.00255065e+02
131             	3.00255475e+02
132             	3.00256143e+02
133             	3.00256767e+02
134             	3.00257364e+02
135             	3.00258018e+02
136             	3.00258603e+02
137             	3.00259100e+02
138             	3.00259488e+02
139             	3.00259789e+02
140             	3.00259649e+02
141             	3.00260159e+02
142             	3.00260566e+02
143             	3.00260853e+02
144             	3.00261035e+02
145             	3.00261173e+02
146             	3.00261530e+02
147             	3.00262216e+02
148             	3.00263463e+02
149             	3.00264263e+02
150             	3.00264904e+02
151             	3.00265628e+02
152             	3.00266371e+02
153             	3.00266690e+02
154             	3.00266746e+02
155             	3.00266949e+02
156             	3.00267325e+02
157             	3.00267570e+02
158             	3.00267628e+02
159             	3.00267735e+02
160             	3.00267881e+02
161             	3.00268289e+02
162             	3.00268739e+02
163             	3.00268626e+02
164             	3.00268853e+02
165             	3.00269156e+02
166             	3.00269466e+02
167             	3.00269476e+02
168             	3.00269928e+02
169             	3.00270304e+02
170             	3.00270615e+02
171             	3.00271005e+02
172             	3.00271617e+02
173             	3.00272050e+02
174             	3.00272509e+02
175             	3.00273105e+02
176             	3.00273079e+02
177             	3.00273696e+02
178             	3.00274291e+02
179             	3.00274672e+02
180             	3.00274997e+02
181             	3.00275279e+02
182             	3.00275504e+02
183             	3.00275975e+02
184             	3.00276004e+02
185             	3.00275806e+02
186             	3.00275756e+02
187             	3.00275605e+02
188             	3.00275489e+02
189             	3.00275371e+02
190             	3.00275307e+02
191             	3.00275428e+02
192             	3.00275381e+02
193             	3.00275551e+02
194             	3.00275986e+02
195             	3.00276248e+02
196             	3.00276704e+02
197             	3.00276904e+02
198             	3.00277321e+02
199             	3.00277693e+02
200             	3.00278079e+02
201             	3.00278504e+02
202             	3.00279081e+02
203             	3.00279705e+02
204             	3.00279926e+02
205             	3.00280251e+02
206             	3.00280590e+02
207             	3.00280927e+02
208             	3.00280958e+02
209             	3.00280589e+02
210             	3.00280381e+02
211             	3.00280316e+02
212             	3.00280225e+02
213             	3.00279885e+02
214             	3.00279914e+02
215             	3.00279713e+02
216             	3.00279588e+02
217             	3.00279468e+02
218             	3.00279166e+02
219             	3.00279160e+02
220             	3.00279325e+02
221             	3.00279418e+02
222             	3.00279585e+02
223             	3.00279837e+02
224             	3.00280351e+02
225             	3.00280777e+02
226             	3.00281146e+02
227             	3.00281605e+02
228             	3.00282064e+02
229             	3.00282497e+02
230             	3.00282660e+02
231             	3.00282958e+02
232             	3.00283258e+02
233             	3.00283469e+02
234             	3.00283493e+02
235             	3.00283292e+02
236             	3.00283255e+02
237             	3.00283094e+02
238             	3.00282811e+02
239             	3.00282539e+02
240             	3.00282208e+02
241             	3.00281896e+02
242             	3.00281651e+02
243             	3.00281502e+02
244             	3.00281319e+02
245             	3.00281133e+02
246             	3.00281095e+02
247             	3.00281192e+02
248             	3.00281344e+02
249             	3.00281668e+02
250             	3.00282148e+02
251             	3.00282665e+02
252             	3.00283273e+02
253             	3.00283691e+02
254             	3.00283921e+02
255             	3.00284213e+02
256             	3.00284459e+02
257             	3.00284579e+02
258             	3.00284588e+02
259             	3.00284500e+02
260             	3.00284363e+02
261             	3.00284238e+02
262             	3.00284160e+02
263             	3.00283862e+02
264             	3.00283795e+02
265             	3.00283485e+02
266             	3.00283248e+02
267             	3.00282948e+02
268             	3.00282604e+02
269             	3.00282478e+02
270             	3.00282464e+02
271             	3.00282439e+02
272             	3.00282431e+02
273             	3.00282533e+02
274             	3.00282632e+02
275             	3.00282771e+02
276             	3.00282949e+02
277             	3.00283291e+02
278             	3.00283733e+02
279             	3.00284014e+02
280             	3.00284311e+02
281             	3.00284553e+02
282             	3.00284861e+02
283             	3.00285134e+02
284             	3.00285025e+02
285             	3.00285137e+02
286             	3.00285093e+02
287             	3.00284881e+02
288             	3.00284515e+02
289             	3.00284141e+02
290             	3.00283752e+02
291             	3.00283334e+02
292             	3.00282928e+02
293             	3.00282567e+02
294             	3.00282346e+02
295             	3.00282130e+02
296             	3.00281957e+02
297             	3.00281916e+02
298             	3.00281979e+02
299             	3.00282142e+02
300             	3.00282397e+02
301             	3.00282698e+02
302             	3.00283061e+02
303             	3.00283370e+02
304             	3.00283844e+02
305             	3.00284150e+02
306             	3.00284650e+02
307             	3.00284988e+02
308             	3.00285213e+02
309             	3.00285340e+02
310             	3.00285377e+02
311             	3.00285325e+02
312             	3.00285188e+02
313             	3.00284969e+02
314             	3.00284675e+02
315             	3.00284390e+02
316             	3.00284022e+02
317             	3.00283687e+02
318             	3.00283399e+02
319             	3.00283168e+02
320             	3.00282998e+02
321             	3.00282871e+02
322             	3.00282933e+02
323             	3.00282821e+02
324             	3.00283017e+02
325             	3.00283195e+02
326             	3.00283463e+02
327             	3.00283740e+02
328             	3.00284054e+02
329             	3.00284392e+02
330             	3.00284678e+02
331             	3.00284917e+02
332             	3.00285212e+02
333             	3.00285426e+02
334             	3.00285557e+02
335             	3.00285636e+02
336             	3.00285712e+02
337             	3.00285674e+02
338             	3.00285590e+02
339             	3.00285444e+02
340             	3.00285183e+02
341             	3.00284905e+02
342             	3.00284617e+02
343             	3.00284360e+02
344             	3.00284089e+02
345             	3.00283909e+02
346             	3.00283789e+02
347             	3.00283740e+02
348             	3.00283646e+02
349             	3.00283715e+02
350             	3.00283832e+02
351             	3.00283986e+02
352             	3.00284178e+02
353             	3.00284408e+02
354             	3.00284706e+02
355             	3.00284878e+02
356             	3.00285085e+02
357             	3.00285265e+02
358             	3.00285395e+02
359             	3.00285449e+02
360             	3.00285441e+02
361             	3.00285365e+02
362             	3.00285226e+02
363             	3.00285089e+02
364             	3.00284832e+02
365             	3.00284456e+02
366             	3.00284100e+02
367             	3.00283748e+02
368             	3.00283464e+02
369             	3.00283229e+02
370             	3.00283036e+02
371             	3.00282912e+02
372             	3.00282863e+02
373             	3.00282903e+02
374             	3.00283051e+02
375             	3.00283296e+02
376             	3.00283537e+02
377             	3.00283889e+02
378             	3.00284351e+02
379             	3.00284724e+02
380             	3.00285109e+02
381             	3.00285446e+02
382             	3.00285755e+02
383             	3.00285975e+02
384             	3.00286109e+02
385             	3.00286157e+02
386             	3.00286115e+02
387             	3.00285992e+02
388             	3.00285796e+02
389             	3.00285617e+02
390             	3.00285259e+02
391             	3.00284913e+02
392             	3.00284488e+02
393             	3.00284119e+02
394             	3.00283889e+02
395             	3.00283735e+02
396             	3.00283665e+02
397             	3.00283687e+02
398             	3.00283801e+02
399             	3.00283972e+02
400             	3.00284157e+02
401             	3.00284457e+02
402             	3.00284788e+02
403             	3.00285193e+02
404             	3.00285598e+02
405             	3.00285924e+02
406             	3.00286214e+02
407             	3.00286461e+02
408             	3.00286641e+02
409             	3.00286726e+02
410             	3.00286721e+02
411             	3.00286618e+02
412             	3.00286426e+02
413             	3.00286310e+02
414             	3.00285943e+02
415             	3.00285581e+02
416             	3.00285235e+02
417             	3.00284887e+02
418             	3.00284578e+02
419             	3.00284309e+02
420             	3.00284139e+02
421             	3.00284068e+02
422             	3.00284057e+02
423             	3.00284168e+02
424             	3.00284366e+02
425             	3.00284552e+02
426             	3.00284855e+02
427             	3.00285205e+02
428             	3.00285718e+02
429             	3.00286055e+02
430             	3.00286403e+02
431             	3.00286686e+02
432             	3.00286912e+02
433             	3.00287046e+02
434             	3.00287094e+02
435             	3.00287061e+02
436             	3.00286950e+02
437             	3.00286773e+02
438             	3.00286485e+02
439             	3.00286225e+02
440             	3.00285831e+02
441             	3.00285483e+02
442             	3.00285073e+02
443             	3.00284714e+02
444             	3.00284458e+02
445             	3.00284309e+02
446             	3.00284256e+02
447             	3.00284310e+02
448             	3.00284468e+02
449             	3.00284720e+02
450             	3.00285042e+02
451             	3.00285321e+02
452             	3.00285794e+02
453             	3.00286303e+02
454             	3.00286755e+02
455             	3.00287183e+02
456             	3.00287488e+02
457             	3.00287700e+02
458             	3.00287841e+02
459             	3.00287893e+02
460             	3.00287850e+02
461             	3.00287704e+02
462             	3.00287480e+02
463             	3.00287182e+02
464             	3.00286780e+02
465             	3.00286265e+02
466             	3.00285764e+02
467             	3.00285243e+02
468             	3.00284785e+02
469             	3.00284409e+02
470             	3.00284125e+02
471             	3.00283979e+02
472             	3.00283944e+02
473             	3.00284014e+02
474             	3.00284183e+02
475             	3.00284441e+02
476             	3.00284781e+02
477             	3.00285197e+02
478             	3.00285713e+02
479             	3.00286108e+02
480             	3.00286529e+02
481             	3.00286886e+02
482             	3.00287158e+02
483             	3.00287331e+02
484             	3.00287416e+02
485             	3.00287397e+02
486             	3.00287293e+02
487             	3.00287102e+02
488             	3.00286818e+02
489             	3.00286473e+02
490             	3.00285995e+02
491             	3.00285492e+02
492             	3.00284976e+02
493             	3.00284519e+02
494             	3.00284139e+02
495             	3.00283854e+02
496             	3.00283674e+02
497             	3.00283598e+02
498             	3.00283627e+02
499             	3.00283758e+02
500             	3.00283974e+02
501             	3.00284279e+02
502             	3.00284672e+02
503             	3.00285123e+02
504             	3.00285518e+02
505             	3.00285931e+02
506             	3.00286287e+02
507             	3.00286548e+02
508             	3.00286714e+02
509             	3.00286783e+02
510             	3.00286747e+02
511             	3.00286622e+02
512             	3.00286421e+02
513             	3.00286154e+02
514             	3.00285803e+02
515             	3.00285333e+02
516             	3.00284845e+02
517             	3.00284374e+02
518             	3.00283974e+02
519             	3.00283648e+02
520             	3.00283413e+02
521             	3.00283280e+02
522             	3.00283260e+02
523             	3.00283332e+02
524             	3.00283500e+02
525             	3.00283754e+02
526             	3.00284078e+02
527             	3.00284504e+02
528             	3.00284931e+02
529             	3.00285354e+02
530             	3.00285768e+02
531             	3.00286113e+02
532             	3.00286367e+02
533             	3.00286530e+02
534             	3.00286605e+02
535             	3.00286586e+02
536             	3.00286487e+02
537             	3.00286321e+02
538             	3.00286075e+02
539             	3.00285656e+02
540             	3.00285228e+02
541             	3.00284761e+02
542             	3.00284322e+02
543             	3.00283932e+02
544             	3.00283619e+02
545             	3.00283401e+02
546             	3.00283287e+02
547             	3.00283280e+02
548             	3.00283369e+02
549             	3.00283560e+02
550             	3.00283847e+02
551             	3.00284226e+02
552             	3.00284713e+02
553             	3.00285132e+02
554             	3.00285598e+02
555             	3.00286044e+02
556             	3.00286425e+02
557             	3.00286711e+02
558             	3.00286911e+02
559             	3.00287019e+02
560             	3.00287034e+02
561             	3.00286961e+02
562             	3.00286785e+02
563             	3.00286492e+02
564             	3.00286073e+02
565             	3.00285618e+02
566             	3.00285120e+02
567             	3.00284657e+02
568             	3.00284254e+02
569             	3.00283920e+02
570             	3.00283675e+02
571             	3.00283525e+02
572             	3.00283473e+02
573             	3.00283521e+02
574             	3.00283675e+02
575             	3.00283923e+02
576             	3.00284264e+02
577             	3.00284700e+02
578             	3.00285095e+02
579             	3.00285519e+02
580             	3.00285928e+02
581             	3.00286284e+02
582             	3.00286551e+02
583             	3.00286739e+02
584             	3.00286840e+02
585             	3.00286848e+02
586             	3.00286769e+02
587             	3.00286597e+02
588             	3.00286347e+02
589             	3.00285907e+02
590             	3.00285488e+02
591             	3.00285013e+02
592             	3.00284554e+02
593             	3.00284152e+02
594             	3.00283822e+02
595             	3.00283572e+02
596             	3.00283414e+02
597             	3.00283358e+02
598             	3.00283404e+02
599             	3.00283551e+02
600             	3.00283790e+02
601             	3.00284115e+02
602             	3.00284530e+02
603             	3.00284915e+02
604             	3.00285321e+02
605             	3.00285726e+02
606             	3.00286072e+02
607             	3.00286333e+02
608             	3.00286516e+02
609             	3.00286614e+02
610             	3.00286619e+02
611             	3.00286539e+02
612             	3.00286367e+02
613             	3.00286107e+02
614             	3.00285712e+02
615             	3.00285280e+02
616             	3.00284842e+02
617             	3.00284412e+02
618             	3.00284030e+02
619             	3.00283716e+02
620             	3.00283482e+02
621             	3.00283337e+02
622             	3.00283293e+02
623             	3.00283350e+02
624             	3.00283506e+02
625             	3.00283752e+02
626             	3.00284084e+02
627             	3.00284499e+02
628             	3.00284883e+02
629             	3.00285288e+02
630             	3.00285688e+02
631             	3.00286036e+02
632             	3.00286301e+02
633             	3.00286485e+02
634             	3.00286589e+02
635             	3.00286604e+02
636             	3.00286535e+02
637             	3.00286377e+02
638             	3.00286149e+02
639             	3.00285774e+02
640             	3.00285376e+02
641             	3.00284936e+02
642             	3.00284512e+02
643             	3.00284146e+02
644             	3.00283851e+02
645             	3.00283635e+02
646             	3.00283510e+02
647             	3.00283481e+02
648             	3.00283540e+02
649             	3.00283694e+02
650             	3.00283934e+02
651             	3.00284256e+02
652             	3.00284659e+02
653             	3.00285051e+02
654             	3.00285438e+02
655             	3.00285836e+02
656             	3.00286186e+02
657             	3.00286451e+02
658             	3.00286634e+02
659             	3.00286733e+02
660             	3.00286746e+02
661             	3.00286678e+02
662             	3.00286525e+02
663             	3.00286283e+02
664             	3.00285919e+02
665             	3.00285536e+02
666             	3.00285101e+02
667             	3.00284671e+02
668             	3.00284293e+02
669             	3.00283978e+02
670             	3.00283743e+02
671             	3.00283599e+02
672             	3.00283554e+02
673             	3.00283600e+02
674             	3.00283741e+02
675             	3.00283969e+02
676             	3.00284279e+02
677             	3.00284670e+02
678             	3.00285064e+02
679             	3.00285449e+02
680             	3.00285852e+02
681             	3.00286205e+02
682             	3.00286471e+02
683             	3.00286658e+02
684             	3.00286763e+02
685             	3.00286780e+02
686             	3.00286713e+02
687             	3.00286553e+02
688             	3.00286317e+02
689             	3.00285932e+02
690             	3.00285493e+02
691             	3.00284986e+02
692             	3.00284579e+02
693             	3.00284196e+02
694             	3.00283866e+02
695             	3.00283607e+02
696             	3.00283438e+02
697             	3.00283376e+02
698             	3.00283416e+02
699             	3.00283553e+02
700             	3.00283778e+02
701             	3.00284084e+02
702             	3.00284471e+02
703             	3.00284884e+02
704             	3.00285273e+02
705             	3.00285677e+02
706             	3.00286033e+02
707             	3.00286307e+02
708             	3.00286504e+02
709             	3.00286621e+02
710             	3.00286652e+02
711             	3.00286598e+02
712             	3.00286451e+02
713             	3.00286229e+02
714             	3.00285878e+02
715             	3.00285456e+02
716             	3.00285004e+02
717             	3.00284587e+02
718             	3.00284203e+02
719             	3.00283878e+02
720             	3.00283629e+02
721             	3.00283466e+02
722             	3.00283401e+02
723             	3.00283432e+02
724             	3.00283560e+02
725             	3.00283779e+02
726             	3.00284083e+02
727             	3.00284461e+02
728             	3.00284874e+02
729             	3.00285248e+02
730             	3.00285651e+02
731             	3.00286008e+02
732             	3.00286290e+02
733             	3.00286488e+02
734             	3.00286606e+02
735             	3.00286637e+02
736             	3.00286586e+02
737             	3.00286453e+02
738             	3.00286230e+02
739             	3.00285886e+02
740             	3.00285486e+02
741             	3.00285040e+02
742             	3.00284611e+02
743             	3.00284235e+02
744             	3.00283925e+02
745             	3.00283695e+02
746             	3.00283553e+02
747             	3.00283504e+02
748             	3.00283540e+02
749             	3.00283660e+02
750             	3.00283873e+02
751             	3.00284167e+02
752             	3.00284549e+02
753             	3.00284968e+02
754             	3.00285330e+02
755             	3.00285730e+02
756             	3.00286085e+02
757             	3.00286361e+02
758             	3.00286557e+02
759             	3.00286672e+02
760             	3.00286700e+02
761             	3.00286648e+02
762             	3.00286512e+02
763             	3.00286281e+02
764             	3.00285908e+02
765             	3.00285518e+02
766             	3.00285098e+02
767             	3.00284679e+02
768             	3.00284300e+02
769             	3.00283983e+02
770             	3.00283737e+02
771             	3.00283574e+02
772             	3.00283509e+02
773             	3.00283543e+02
774             	3.00283674e+02
775             	3.00283895e+02
776             	3.00284200e+02
777             	3.00284576e+02
778             	3.00284997e+02
779             	3.00285386e+02
780             	3.00285803e+02
781             	3.00286168e+02
782             	3.00286455e+02
783             	3.00286660e+02
784             	3.00286785e+02
785             	3.00286820e+02
786             	3.00286768e+02
787             	3.00286623e+02
788             	3.00286393e+02
789             	3.00286019e+02
790             	3.00285617e+02
791             	3.00285174e+02
792             	3.00284741e+02
793             	3.00284357e+02
794             	3.00284034e+02
795             	3.00283784e+02
796             	3.00283613e+02
797             	3.00283531e+02
798             	3.00283546e+02
799             	3.00283659e+02
800             	3.00283872e+02
801             	3.00284177e+02
802             	3.00284543e+02
803             	3.00284966e+02
804             	3.00285340e+02
805             	3.00285753e+02
806             	3.00286117e+02
807             	3.00286405e+02
808             	3.00286608e+02
809             	3.00286732e+02
810             	3.00286768e+02
811             	3.00286719e+02
812             	3.00286582e+02
813             	3.00286353e+02
814             	3.00285992e+02
815             	3.00285597e+02
816             	3.00285183e+02
817             	3.00284764e+02
818             	3.00284388e+02
819             	3.00284073e+02
820             	3.00283829e+02
821             	3.00283666e+02
822             	3.00283596e+02
823             	3.00283613e+02
824             	3.00283727e+02
825             	3.00283938e+02
826             	3.00284243e+02
827             	3.00284614e+02
828             	3.00285040e+02
829             	3.00285416e+02
830             	3.00285840e+02
831             	3.00286213e+02
832             	3.00286505e+02
833             	3.00286715e+02
834             	3.00286844e+02
835             	3.00286883e+02
836             	3.00286836e+02
837             	3.00286700e+02
838             	3.00286473e+02
839             	3.00286101e+02
840             	3.00285716e+02
841             	3.00285298e+02
842             	3.00284861e+02
843             	3.00284450e+02
844             	3.00284084e+02
845             	3.00283809e+02
846             	3.00283637e+02
847             	3.00283564e+02
848             	3.00283586e+02
849             	3.00283702e+02
850             	3.00283911e+02
851             	3.00284201e+02
852             	3.00284568e+02
853             	3.00285074e+02
854             	3.00285429e+02
855             	3.00285831e+02
856             	3.00286196e+02
857             	3.00286509e+02
858             	3.00286746e+02
859             	3.00286898e+02
860             	3.00286957e+02
861             	3.00286927e+02
862             	3.00286802e+02
863             	3.00286598e+02
864             	3.00286304e+02
865             	3.00285896e+02
866             	3.00285469e+02
867             	3.00285018e+02
868             	3.00284615e+02
869             	3.00284277e+02
870             	3.00284015e+02
871             	3.00283844e+02
872             	3.00283767e+02
873             	3.00283779e+02
874             	3.00283867e+02
875             	3.00284041e+02
876             	3.00284299e+02
877             	3.00284642e+02
878             	3.00285109e+02
879             	3.00285428e+02
880             	3.00285810e+02
881             	3.00286163e+02
882             	3.00286453e+02
883             	3.00286657e+02
884             	3.00286782e+02
885             	3.00286821e+02
886             	3.00286770e+02
887             	3.00286640e+02
888             	3.00286440e+02
889             	3.00286174e+02
890             	3.00285753e+02
891             	3.00285334e+02
892             	3.00284881e+02
893             	3.00284491e+02
894             	3.00284157e+02
895             	3.00283903e+02
896             	3.00283737e+02
897             	3.00283669e+02
898             	3.00283697e+02
899             	3.00283814e+02
900             	3.00284009e+02
901             	3.00284274e+02
902             	3.00284616e+02
903             	3.00285124e+02
904             	3.00285452e+02
905             	3.00285845e+02
906             	3.00286193e+02
907             	3.00286472e+02
908             	3.00286666e+02
909             	3.00286781e+02
910             	3.00286807e+02
911             	3.00286747e+02
912             	3.00286612e+02
913             	3.00286403e+02
914             	3.00286059e+02
915             	3.00285630e+02
916             	3.00285204e+02
917             	3.00284758e+02
918             	3.00284346e+02
919             	3.00283992e+02
920             	3.00283720e+02
921             	3.00283542e+02
922             	3.00283464e+02
923             	3.00283482e+02
924             	3.00283592e+02
925             	3.00283797e+02
926             	3.00284088e+02
927             	3.00284462e+02
928             	3.00284918e+02
929             	3.00285294e+02
930             	3.00285722e+02
931             	3.00286103e+02
932             	3.00286405e+02
933             	3.00286623e+02