# Region        : cellZone component_4
# Cells         : 83
# Volume        : 1.03878706e-01
# Time          	volAverage(T)
1               	3.02043238e+02
2               	3.04027857e+02
3               	3.05554571e+02
4               	3.06767376e+02
5               	3.07879515e+02
6               	3.08956090e+02
7               	3.09979220e+02
8               	3.10924576e+02
9               	3.11803533e+02
10              	3.12627186e+02
11              	3.13411525e+02
12              	3.14165934e+02
13              	3.14890458e+02
14              	3.15607740e+02
15              	3.16343547e+02
16              	3.17111433e+02
17              	3.17930285e+02
18              	3.18653038e+02
19              	3.19342519e+02
20              	3.19948891e+02
21              	3.20453780e+02
22              	3.20858489e+02
23              	3.21187189e+02
24              	3.21452675e+02
25              	3.21669086e+02
26              	3.21851531e+02
27              	3.22045907e+02
28              	3.22249240e+02
29              	3.22465259e+02
30              	3.22703362e+02
31              	3.22968520e+02
32              	3.23268311e+02
33              	3.23601188e+02
34              	3.23960848e+02
35              	3.24343006e+02
36              	3.24740841e+02
37              	3.25133594e+02
38              	3.25508934e+02
39              	3.25848296e+02
40              	3.26141468e+02
41              	3.26374465e+02
42              	3.26559221e+02
43              	3.26691514e+02
44              	3.26782215e+02
45              	3.26841591e+02
46              	3.26894788e+02
47              	3.26947028e+02
48              	3.27001474e+02
49              	3.27076093e+02
50              	3.27195241e+02
51              	3.27385456e+02
52              	3.27647815e+02
53              	3.27923591e+02
54              	3.28190364e+02
55              	3.28398943e+02
56              	3.28534180e+02
57              	3.28601530e+02
58              	3.28603257e+02
59              	3.28570459e+02
60              	3.28491917e+02
61              	3.28379118e+02
62              	3.28261796e+02
63              	3.28163038e+02
64              	3.28089576e+02
65              	3.28044741e+02
66              	3.28046990e+02
67              	3.28094123e+02
68              	3.28202648e+02
69              	3.28315772e+02
70              	3.28431460e+02
71              	3.28532133e+02
72              	3.28610537e+02
73              	3.28672222e+02
74              	3.28709139e+02
75              	3.28728660e+02
76              	3.28733337e+02
77              	3.28725702e+02
78              	3.28692340e+02
79              	3.28637710e+02
80              	3.28578758e+02
81              	3.28541641e+02
82              	3.28518280e+02
83              	3.28512058e+02
84              	3.28546075e+02
85              	3.28668145e+02
86              	3.28799951e+02
87              	3.28975404e+02
88              	3.29135821e+02
89              	3.29258256e+02
90              	3.29328662e+02
91              	3.29357189e+02
92              	3.29356259e+02
93              	3.29335171e+02
94              	3.29290342e+02
95              	3.29232193e+02
96              	3.29156437e+02
97              	3.29070272e+02
98              	3.28999774e+02
99              	3.28964838e+02
100             	3.28975872e+02
101             	3.29050081e+02
102             	3.29163598e+02
103             	3.29276953e+02
104             	3.29388044e+02
105             	3.29460722e+02
106             	3.29487930e+02
107             	3.29461853e+02
108             	3.29394703e+02
109             	3.29289638e+02
110             	3.29205340e+02
111             	3.29145295e+02
112             	3.29109869e+02
113             	3.29119022e+02
114             	3.29193358e+02
115             	3.29277111e+02
116             	3.29394198e+02
117             	3.29490086e+02
118             	3.29534720e+02
119             	3.29546928e+02
120             	3.29510843e+02
121             	3.29447547e+02
122             	3.29351734e+02
123             	3.29249075e+02
124             	3.29148721e+02
125             	3.29064271e+02
126             	3.29019287e+02
127             	3.29022476e+02
128             	3.29072964e+02
129             	3.29167091e+02
130             	3.29294955e+02
131             	3.29410782e+02
132             	3.29522320e+02
133             	3.29600383e+02
134             	3.29643741e+02
135             	3.29653656e+02
136             	3.29626199e+02
137             	3.29564376e+02
138             	3.29463326e+02
139             	3.29356173e+02
140             	3.29265102e+02
141             	3.29219145e+02
142             	3.29234998e+02
143             	3.29328985e+02
144             	3.29412572e+02
145             	3.29428406e+02
146             	3.29425630e+02
147             	3.29396824e+02
148             	3.29341232e+02
149             	3.29234295e+02
150             	3.29090201e+02
151             	3.28909954e+02
152             	3.28772517e+02
153             	3.28647435e+02
154             	3.28538672e+02
155             	3.28513949e+02
156             	3.28556244e+02
157             	3.28659295e+02
158             	3.28798403e+02
159             	3.28926496e+02
160             	3.29003030e+02
161             	3.29039301e+02
162             	3.29039588e+02
163             	3.29021092e+02
164             	3.28996468e+02
165             	3.28959718e+02
166             	3.28906846e+02
167             	3.28836464e+02
168             	3.28749672e+02
169             	3.28671681e+02
170             	3.28600804e+02
171             	3.28553322e+02
172             	3.28535462e+02
173             	3.28547835e+02
174             	3.28590742e+02
175             	3.28666414e+02
176             	3.28752558e+02
177             	3.28856196e+02
178             	3.28958520e+02
179             	3.29050181e+02
180             	3.29129353e+02
181             	3.29197185e+02
182             	3.29244673e+02
183             	3.29274919e+02
184             	3.29286927e+02
185             	3.29285033e+02
186             	3.29269482e+02
187             	3.29253856e+02
188             	3.29254263e+02
189             	3.29267944e+02
190             	3.29296217e+02
191             	3.29344440e+02
192             	3.29405455e+02
193             	3.29481579e+02
194             	3.29569025e+02
195             	3.29639005e+02
196             	3.29682791e+02
197             	3.29707231e+02
198             	3.29719872e+02
199             	3.29722437e+02
200             	3.29717363e+02
201             	3.29708105e+02
202             	3.29692938e+02
203             	3.29681332e+02
204             	3.29673918e+02
205             	3.29669596e+02
206             	3.29669458e+02
207             	3.29675993e+02
208             	3.29691737e+02
209             	3.29718341e+02
210             	3.29756598e+02
211             	3.29805100e+02
212             	3.29861129e+02
213             	3.29915774e+02
214             	3.29964360e+02
215             	3.30003844e+02
216             	3.30034056e+02
217             	3.30055098e+02
218             	3.30069636e+02
219             	3.30077109e+02
220             	3.30075737e+02
221             	3.30075436e+02
222             	3.30075259e+02
223             	3.30081829e+02
224             	3.30094951e+02
225             	3.30115525e+02
226             	3.30143107e+02
227             	3.30175814e+02
228             	3.30210778e+02
229             	3.30244430e+02
230             	3.30273802e+02
231             	3.30297141e+02
232             	3.30314366e+02
233             	3.30326820e+02
234             	3.30336881e+02
235             	3.30346666e+02
236             	3.30355395e+02
237             	3.30363355e+02
238             	3.30371291e+02
239             	3.30379745e+02
240             	3.30389008e+02
241             	3.30398599e+02
242             	3.30406423e+02
243             	3.30409574e+02
244             	3.30406746e+02
245             	3.30397610e+02
246             	3.30386418e+02
247             	3.30374685e+02
248             	3.30362707e+02
249             	3.30352431e+02
250             	3.30346657e+02
251             	3.30346789e+02
252             	3.30353716e+02
253             	3.30366832e+02
254             	3.30384065e+02
255             	3.30401880e+02
256             	3.30418904e+02
257             	3.30435184e+02
258             	3.30451712e+02
259             	3.30467652e+02
260             	3.30482640e+02
261             	3.30495488e+02
262             	3.30505194e+02
263             	3.30510110e+02
264             	3.30508789e+02
265             	3.30500832e+02
266             	3.30488487e+02
267             	3.30471781e+02
268             	3.30452913e+02
269             	3.30435775e+02
270             	3.30422007e+02
271             	3.30413075e+02
272             	3.30410899e+02
273             	3.30414600e+02
274             	3.30423990e+02
275             	3.30438230e+02
276             	3.30456508e+02
277             	3.30476412e+02
278             	3.30494539e+02
279             	3.30508452e+02
280             	3.30517307e+02
281             	3.30520096e+02
282             	3.30519866e+02
283             	3.30516082e+02
284             	3.30508588e+02
285             	3.30498016e+02
286             	3.30487455e+02
287             	3.30479736e+02
288             	3.30475333e+02
289             	3.30473894e+02
290             	3.30475503e+02
291             	3.30480592e+02
292             	3.30489511e+02
293             	3.30500205e+02
294             	3.30510475e+02
295             	3.30518788e+02
296             	3.30525767e+02
297             	3.30532226e+02
298             	3.30538650e+02
299             	3.30544489e+02
300             	3.30548661e+02
301             	3.30548632e+02
302             	3.30544579e+02
303             	3.30536676e+02
304             	3.30528790e+02
305             	3.30522678e+02
306             	3.30518707e+02
307             	3.30517336e+02
308             	3.30519757e+02
309             	3.30526071e+02
310             	3.30534455e+02
311             	3.30544119e+02
312             	3.30551986e+02
313             	3.30557739e+02
314             	3.30560752e+02
315             	3.30561120e+02
316             	3.30559054e+02
317             	3.30554858e+02
318             	3.30547774e+02
319             	3.30539261e+02
320             	3.30529938e+02
321             	3.30520213e+02
322             	3.30511654e+02
323             	3.30505702e+02
324             	3.30501826e+02
325             	3.30499558e+02
326             	3.30499354e+02
327             	3.30501542e+02
328             	3.30506652e+02
329             	3.30514552e+02
330             	3.30524361e+02
331             	3.30534776e+02
332             	3.30543322e+02
333             	3.30548104e+02
334             	3.30549051e+02
335             	3.30545553e+02
336             	3.30539116e+02
337             	3.30530864e+02
338             	3.30521759e+02
339             	3.30513699e+02
340             	3.30507394e+02
341             	3.30503740e+02
342             	3.30503099e+02
343             	3.30505748e+02
344             	3.30511597e+02
345             	3.30520020e+02
346             	3.30529190e+02
347             	3.30538606e+02
348             	3.30547843e+02
349             	3.30555570e+02
350             	3.30561564e+02
351             	3.30565412e+02
352             	3.30566379e+02
353             	3.30563839e+02
354             	3.30557689e+02
355             	3.30549333e+02
356             	3.30539473e+02
357             	3.30530067e+02
358             	3.30522039e+02
359             	3.30515999e+02
360             	3.30512225e+02
361             	3.30510725e+02
362             	3.30511398e+02
363             	3.30513800e+02
364             	3.30517590e+02
365             	3.30522634e+02
366             	3.30529047e+02
367             	3.30536867e+02
368             	3.30545394e+02
369             	3.30553645e+02
370             	3.30559844e+02
371             	3.30563804e+02
372             	3.30565268e+02
373             	3.30563911e+02
374             	3.30559249e+02
375             	3.30550603e+02
376             	3.30540563e+02
377             	3.30531112e+02
378             	3.30523024e+02
379             	3.30516150e+02
380             	3.30510930e+02
381             	3.30508594e+02
382             	3.30509464e+02
383             	3.30511846e+02
384             	3.30515492e+02
385             	3.30519197e+02
386             	3.30522194e+02
387             	3.30524437e+02
388             	3.30525717e+02
389             	3.30524839e+02
390             	3.30523133e+02
391             	3.30520157e+02
392             	3.30515526e+02
393             	3.30509773e+02
394             	3.30504271e+02
395             	3.30500050e+02
396             	3.30498192e+02
397             	3.30499995e+02
398             	3.30504832e+02
399             	3.30511960e+02
400             	3.30520607e+02
401             	3.30529268e+02
402             	3.30537001e+02
403             	3.30543267e+02
404             	3.30547663e+02
405             	3.30550069e+02
406             	3.30549750e+02
407             	3.30546818e+02
408             	3.30541261e+02
409             	3.30534844e+02
410             	3.30528825e+02
411             	3.30523651e+02
412             	3.30519052e+02
413             	3.30516137e+02
414             	3.30515553e+02
415             	3.30517492e+02
416             	3.30521832e+02
417             	3.30526927e+02
418             	3.30531353e+02
419             	3.30534592e+02
420             	3.30537231e+02
421             	3.30539252e+02
422             	3.30540724e+02
423             	3.30541298e+02
424             	3.30540420e+02
425             	3.30537426e+02
426             	3.30532424e+02
427             	3.30526219e+02
428             	3.30519820e+02
429             	3.30513402e+02
430             	3.30507678e+02
431             	3.30503555e+02
432             	3.30501511e+02
433             	3.30501590e+02
434             	3.30503696e+02
435             	3.30506977e+02
436             	3.30510937e+02
437             	3.30515203e+02
438             	3.30519572e+02
439             	3.30523936e+02
440             	3.30527760e+02
441             	3.30530147e+02
442             	3.30530970e+02
443             	3.30530284e+02
444             	3.30528469e+02
445             	3.30526222e+02
446             	3.30524243e+02
447             	3.30522171e+02
448             	3.30519861e+02
449             	3.30517303e+02
450             	3.30514724e+02
451             	3.30512287e+02
452             	3.30510101e+02
453             	3.30508275e+02
454             	3.30507128e+02
455             	3.30507005e+02
456             	3.30508080e+02
457             	3.30510363e+02
458             	3.30513819e+02
459             	3.30518141e+02
460             	3.30522907e+02
461             	3.30527785e+02
462             	3.30532636e+02
463             	3.30537319e+02
464             	3.30541831e+02
465             	3.30545869e+02
466             	3.30549177e+02
467             	3.30551510e+02
468             	3.30552801e+02
469             	3.30552981e+02
470             	3.30552058e+02
471             	3.30550003e+02
472             	3.30547011e+02
473             	3.30543250e+02
474             	3.30539255e+02
475             	3.30535554e+02
476             	3.30532316e+02
477             	3.30529586e+02
478             	3.30527745e+02
479             	3.30526948e+02
480             	3.30527346e+02
481             	3.30528816e+02
482             	3.30531154e+02
483             	3.30533816e+02
484             	3.30536388e+02
485             	3.30538787e+02
486             	3.30540896e+02
487             	3.30542465e+02
488             	3.30543192e+02
489             	3.30542851e+02
490             	3.30541704e+02
491             	3.30540305e+02
492             	3.30538722e+02
493             	3.30537121e+02
494             	3.30535651e+02
495             	3.30534523e+02
496             	3.30533859e+02
497             	3.30533775e+02
498             	3.30534243e+02
499             	3.30535182e+02
500             	3.30536413e+02
501             	3.30537839e+02
502             	3.30539325e+02
503             	3.30540718e+02
504             	3.30541991e+02
505             	3.30543109e+02
506             	3.30543981e+02
507             	3.30544533e+02
508             	3.30544686e+02
509             	3.30544364e+02
510             	3.30543500e+02
511             	3.30542109e+02
512             	3.30540289e+02
513             	3.30538357e+02
514             	3.30536646e+02
515             	3.30535180e+02
516             	3.30533971e+02
517             	3.30533125e+02
518             	3.30532750e+02
519             	3.30532979e+02
520             	3.30533916e+02
521             	3.30535334e+02
522             	3.30536871e+02
523             	3.30538425e+02
524             	3.30540007e+02
525             	3.30541616e+02
526             	3.30543034e+02
527             	3.30543880e+02
528             	3.30544035e+02
529             	3.30543421e+02
530             	3.30542244e+02
531             	3.30540948e+02
532             	3.30539455e+02
533             	3.30537737e+02
534             	3.30535937e+02
535             	3.30534331e+02
536             	3.30533153e+02
537             	3.30532573e+02
538             	3.30532724e+02
539             	3.30533397e+02
540             	3.30534301e+02
541             	3.30535495e+02
542             	3.30536949e+02
543             	3.30538485e+02
544             	3.30539991e+02
545             	3.30541328e+02
546             	3.30542374e+02
547             	3.30542987e+02
548             	3.30543180e+02
549             	3.30542888e+02
550             	3.30542097e+02
551             	3.30540981e+02
552             	3.30539889e+02
553             	3.30539202e+02
554             	3.30538930e+02
555             	3.30539044e+02
556             	3.30539469e+02
557             	3.30540150e+02
558             	3.30541035e+02
559             	3.30542000e+02
560             	3.30542898e+02
561             	3.30543670e+02
562             	3.30544398e+02
563             	3.30545066e+02
564             	3.30545644e+02
565             	3.30546129e+02
566             	3.30546526e+02
567             	3.30546739e+02
568             	3.30546774e+02
569             	3.30546623e+02
570             	3.30546257e+02
571             	3.30545708e+02
572             	3.30544951e+02
573             	3.30543953e+02
574             	3.30542830e+02
575             	3.30541678e+02
576             	3.30540550e+02
577             	3.30539558e+02
578             	3.30538773e+02
579             	3.30538318e+02
580             	3.30538254e+02
581             	3.30538528e+02
582             	3.30539111e+02
583             	3.30539977e+02
584             	3.30541023e+02
585             	3.30542163e+02
586             	3.30543371e+02
587             	3.30544568e+02
588             	3.30545697e+02
589             	3.30546672e+02
590             	3.30547403e+02
591             	3.30547821e+02
592             	3.30547907e+02
593             	3.30547670e+02
594             	3.30547144e+02
595             	3.30546346e+02
596             	3.30545355e+02
597             	3.30544251e+02
598             	3.30543126e+02
599             	3.30542054e+02
600             	3.30541060e+02
601             	3.30540133e+02
602             	3.30539273e+02
603             	3.30538440e+02
604             	3.30537651e+02
605             	3.30536893e+02
606             	3.30536173e+02
607             	3.30535511e+02
608             	3.30535034e+02
609             	3.30534801e+02
610             	3.30534833e+02
611             	3.30535106e+02
612             	3.30535670e+02
613             	3.30536521e+02
614             	3.30537600e+02
615             	3.30538832e+02
616             	3.30540144e+02
617             	3.30541420e+02
618             	3.30542553e+02
619             	3.30543411e+02
620             	3.30544032e+02
621             	3.30544434e+02
622             	3.30544621e+02
623             	3.30544637e+02
624             	3.30544528e+02
625             	3.30544327e+02
626             	3.30544066e+02
627             	3.30543748e+02
628             	3.30543382e+02
629             	3.30542957e+02
630             	3.30542456e+02
631             	3.30541865e+02
632             	3.30541214e+02
633             	3.30540521e+02
634             	3.30539806e+02
635             	3.30539081e+02
636             	3.30538367e+02
637             	3.30537705e+02
638             	3.30537146e+02
639             	3.30536697e+02
640             	3.30536403e+02
641             	3.30536275e+02
642             	3.30536329e+02
643             	3.30536588e+02
644             	3.30537045e+02
645             	3.30537688e+02
646             	3.30538500e+02
647             	3.30539460e+02
648             	3.30540528e+02
649             	3.30541600e+02
650             	3.30542541e+02
651             	3.30543302e+02
652             	3.30543882e+02
653             	3.30544267e+02
654             	3.30544443e+02
655             	3.30544392e+02
656             	3.30544100e+02
657             	3.30543563e+02
658             	3.30542865e+02
659             	3.30542130e+02
660             	3.30541374e+02
661             	3.30540608e+02
662             	3.30539875e+02
663             	3.30539215e+02
664             	3.30538705e+02
665             	3.30538374e+02
666             	3.30538215e+02
667             	3.30538184e+02
668             	3.30538266e+02
669             	3.30538442e+02
670             	3.30538697e+02
671             	3.30538992e+02
672             	3.30539362e+02
673             	3.30539786e+02
674             	3.30540221e+02
675             	3.30540655e+02
676             	3.30541070e+02
677             	3.30541443e+02
678             	3.30541734e+02
679             	3.30541906e+02
680             	3.30541956e+02
681             	3.30541877e+02
682             	3.30541675e+02
683             	3.30541374e+02
684             	3.30540991e+02
685             	3.30540532e+02
686             	3.30540067e+02
687             	3.30539629e+02
688             	3.30539234e+02
689             	3.30538876e+02
690             	3.30538561e+02
691             	3.30538311e+02
692             	3.30538126e+02
693             	3.30538051e+02
694             	3.30538153e+02
695             	3.30538462e+02
696             	3.30538960e+02
697             	3.30539605e+02
698             	3.30540352e+02
699             	3.30541156e+02
700             	3.30541948e+02
701             	3.30542632e+02
702             	3.30543186e+02
703             	3.30543544e+02
704             	3.30543708e+02
705             	3.30543703e+02
706             	3.30543558e+02
707             	3.30543282e+02
708             	3.30542889e+02
709             	3.30542426e+02
710             	3.30541902e+02
711             	3.30541357e+02
712             	3.30540774e+02
713             	3.30540162e+02
714             	3.30539558e+02
715             	3.30538981e+02
716             	3.30538425e+02
717             	3.30537897e+02
718             	3.30537409e+02
719             	3.30536967e+02
720             	3.30536575e+02
721             	3.30536221e+02
722             	3.30535921e+02
723             	3.30535711e+02
724             	3.30535614e+02
725             	3.30535653e+02
726             	3.30535830e+02
727             	3.30536151e+02
728             	3.30536573e+02
729             	3.30537089e+02
730             	3.30537677e+02
731             	3.30538334e+02
732             	3.30539049e+02
733             	3.30539804e+02
734             	3.30540569e+02
735             	3.30541298e+02
736             	3.30541991e+02
737             	3.30542632e+02
738             	3.30543157e+02
739             	3.30543530e+02
740             	3.30543674e+02
741             	3.30543612e+02
742             	3.30543370e+02
743             	3.30542976e+02
744             	3.30542418e+02
745             	3.30541720e+02
746             	3.30540927e+02
747             	3.30540073e+02
748             	3.30539239e+02
749             	3.30538481e+02
750             	3.30537856e+02
751             	3.30537404e+02
752             	3.30537094e+02
753             	3.30536930e+02
754             	3.30536933e+02
755             	3.30537103e+02
756             	3.30537428e+02
757             	3.30537897e+02
758             	3.30538487e+02
759             	3.30539152e+02
760             	3.30539850e+02
761             	3.30540517e+02
762             	3.30541094e+02
763             	3.30541555e+02
764             	3.30541847e+02
765             	3.30541975e+02
766             	3.30541944e+02
767             	3.30541801e+02
768             	3.30541521e+02
769             	3.30541104e+02
770             	3.30540638e+02
771             	3.30540247e+02
772             	3.30539911e+02
773             	3.30539593e+02
774             	3.30539290e+02
775             	3.30539056e+02
776             	3.30538925e+02
777             	3.30538929e+02
778             	3.30539103e+02
779             	3.30539433e+02
780             	3.30539936e+02
781             	3.30540590e+02
782             	3.30541368e+02
783             	3.30542217e+02
784             	3.30542994e+02
785             	3.30543496e+02
786             	3.30543694e+02
787             	3.30543591e+02
788             	3.30543248e+02
789             	3.30542708e+02
790             	3.30542006e+02
791             	3.30541242e+02
792             	3.30540517e+02
793             	3.30539916e+02
794             	3.30539469e+02
795             	3.30539243e+02
796             	3.30539299e+02
797             	3.30539661e+02
798             	3.30540283e+02
799             	3.30540920e+02
800             	3.30541357e+02
801             	3.30541626e+02
802             	3.30541764e+02
803             	3.30541800e+02
804             	3.30541637e+02
805             	3.30541433e+02
806             	3.30541356e+02
807             	3.30541340e+02
808             	3.30541321e+02
809             	3.30541333e+02
810             	3.30541468e+02
811             	3.30541802e+02
812             	3.30542295e+02
813             	3.30542928e+02
814             	3.30543664e+02
815             	3.30544392e+02
816             	3.30545017e+02
817             	3.30545427e+02
818             	3.30545620e+02
819             	3.30545643e+02
820             	3.30545448e+02
821             	3.30545051e+02
822             	3.30544448e+02
823             	3.30543641e+02
824             	3.30542655e+02
825             	3.30541530e+02
826             	3.30540382e+02
827             	3.30539472e+02
828             	3.30538791e+02
829             	3.30538288e+02
830             	3.30537998e+02
831             	3.30537963e+02
832             	3.30538171e+02
833             	3.30538561e+02
834             	3.30539111e+02
835             	3.30539756e+02
836             	3.30540430e+02
837             	3.30541048e+02
838             	3.30541568e+02
839             	3.30542005e+02
840             	3.30542344e+02
841             	3.30542596e+02
842             	3.30542731e+02
843             	3.30542740e+02
844             	3.30542596e+02
845             	3.30542270e+02
846             	3.30541777e+02
847             	3.30541066e+02
848             	3.30540213e+02
849             	3.30539285e+02
850             	3.30538406e+02
851             	3.30537764e+02
852             	3.30537369e+02
853             	3.30537243e+02
854             	3.30537386e+02
855             	3.30537809e+02
856             	3.30538476e+02
857             	3.30539161e+02
858             	3.30539608e+02
859             	3.30539815e+02
860             	3.30539854e+02
861             	3.30539648e+02
862             	3.30539249e+02
863             	3.30538788e+02
864             	3.30538252e+02
865             	3.30537710e+02
866             	3.30537150e+02
867             	3.30536613e+02
868             	3.30536206e+02
869             	3.30535952e+02
870             	3.30536030e+02
871             	3.30536438e+02
872             	3.30536966e+02
873             	3.30537424e+02
874             	3.30537698e+02
875             	3.30537838e+02
876             	3.30537757e+02
877             	3.30537443e+02
878             	3.30536950e+02
879             	3.30536255e+02
880             	3.30535449e+02
881             	3.30534674e+02
882             	3.30534045e+02
883             	3.30533630e+02
884             	3.30533463e+02
885             	3.30533538e+02
886             	3.30533781e+02
887             	3.30534091e+02
888             	3.30534456e+02
889             	3.30534877e+02
890             	3.30535358e+02
891             	3.30535812e+02
892             	3.30536149e+02
893             	3.30536402e+02
894             	3.30536619e+02
895             	3.30536856e+02
896             	3.30537120e+02
897             	3.30537447e+02
898             	3.30537761e+02
899             	3.30538006e+02
900             	3.30538183e+02
901             	3.30538260e+02
902             	3.30538177e+02
903             	3.30537937e+02
904             	3.30537581e+02
905             	3.30537138e+02
906             	3.30536634e+02
907             	3.30536069e+02
908             	3.30535465e+02
909             	3.30534872e+02
910             	3.30534336e+02
911             	3.30533910e+02
912             	3.30533681e+02
913             	3.30533708e+02
914             	3.30533983e+02
915             	3.30534443e+02
916             	3.30535054e+02
917             	3.30535748e+02
918             	3.30536497e+02
919             	3.30537227e+02
920             	3.30537868e+02
921             	3.30538437e+02
922             	3.30538881e+02
923             	3.30539165e+02
924             	3.30539315e+02
925             	3.30539388e+02
926             	3.30539391e+02
927             	3.30539380e+02
928             	3.30539385e+02
929             	3.30539419e+02
930             	3.30539459e+02
931             	3.30539498e+02
932             	3.30539520e+02
933             	3.30539500e+02