# Region        : cellZone pcb
# Cells         : 680
# Volume        : 1.19489422e+00
# Time          	volAverage(T)
1               	3.00003734e+02
2               	3.00010849e+02
3               	3.00020934e+02
4               	3.00033485e+02
5               	3.00047636e+02
6               	3.00063698e+02
7               	3.00081903e+02
8               	3.00102065e+02
9               	3.00124274e+02
10              	3.00148764e+02
11              	3.00176324e+02
12              	3.00205152e+02
13              	3.00236401e+02
14              	3.00268074e+02
15              	3.00298771e+02
16              	3.00330748e+02
17              	3.00365840e+02
18              	3.00400304e+02
19              	3.00436564e+02
20              	3.00473999e+02
21              	3.00511229e+02
22              	3.00551724e+02
23              	3.00593904e+02
24              	3.00636284e+02
25              	3.00678389e+02
26              	3.00723105e+02
27              	3.00771125e+02
28              	3.00820898e+02
29              	3.00869207e+02
30              	3.00916178e+02
31              	3.00963454e+02
32              	3.01010779e+02
33              	3.01058237e+02
34              	3.01105131e+02
35              	3.01150752e+02
36              	3.01198659e+02
37              	3.01246102e+02
38              	3.01291901e+02
39              	3.01341174e+02
40              	3.01389035e+02
41              	3.01434638e+02
42              	3.01483067e+02
43              	3.01533949e+02
44              	3.01585253e+02
45              	3.01636127e+02
46              	3.01686639e+02
47              	3.01738423e+02
48              	3.01790200e+02
49              	3.01840096e+02
50              	3.01890713e+02
51              	3.01935966e+02
52              	3.01979291e+02
53              	3.02021896e+02
54              	3.02067259e+02
55              	3.02115287e+02
56              	3.02164170e+02
57              	3.02214298e+02
58              	3.02266763e+02
59              	3.02319993e+02
60              	3.02370953e+02
61              	3.02421840e+02
62              	3.02465420e+02
63              	3.02507493e+02
64              	3.02555357e+02
65              	3.02601207e+02
66              	3.02646655e+02
67              	3.02690358e+02
68              	3.02740155e+02
69              	3.02789962e+02
70              	3.02837789e+02
71              	3.02888014e+02
72              	3.02941203e+02
73              	3.02992804e+02
74              	3.03041608e+02
75              	3.03089598e+02
76              	3.03142169e+02
77              	3.03193798e+02
78              	3.03243885e+02
79              	3.03295755e+02
80              	3.03345764e+02
81              	3.03392647e+02
82              	3.03436034e+02
83              	3.03479870e+02
84              	3.03527650e+02
85              	3.03575714e+02
86              	3.03622703e+02
87              	3.03667005e+02
88              	3.03710939e+02
89              	3.03756011e+02
90              	3.03798994e+02
91              	3.03839200e+02
92              	3.03876368e+02
93              	3.03920104e+02
94              	3.03961930e+02
95              	3.04002224e+02
96              	3.04044269e+02
97              	3.04085926e+02
98              	3.04131585e+02
99              	3.04177998e+02
100             	3.04222557e+02
101             	3.04266128e+02
102             	3.04306815e+02
103             	3.04347446e+02
104             	3.04388486e+02
105             	3.04426824e+02
106             	3.04459879e+02
107             	3.04494816e+02
108             	3.04528827e+02
109             	3.04562981e+02
110             	3.04598440e+02
111             	3.04634389e+02
112             	3.04674020e+02
113             	3.04715912e+02
114             	3.04756123e+02
115             	3.04793134e+02
116             	3.04831263e+02
117             	3.04870627e+02
118             	3.04909896e+02
119             	3.04943394e+02
120             	3.04972831e+02
121             	3.05001687e+02
122             	3.05030472e+02
123             	3.05062422e+02
124             	3.05096704e+02
125             	3.05132411e+02
126             	3.05168318e+02
127             	3.05203681e+02
128             	3.05238151e+02
129             	3.05270337e+02
130             	3.05304483e+02
131             	3.05336751e+02
132             	3.05362513e+02
133             	3.05385970e+02
134             	3.05411039e+02
135             	3.05437889e+02
136             	3.05465224e+02
137             	3.05492909e+02
138             	3.05522309e+02
139             	3.05555399e+02
140             	3.05588286e+02
141             	3.05619959e+02
142             	3.05650224e+02
143             	3.05678079e+02
144             	3.05707906e+02
145             	3.05736357e+02
146             	3.05763782e+02
147             	3.05786037e+02
148             	3.05811490e+02
149             	3.05835703e+02
150             	3.05858278e+02
151             	3.05880715e+02
152             	3.05903335e+02
153             	3.05928041e+02
154             	3.05954304e+02
155             	3.05980730e+02
156             	3.06005868e+02
157             	3.06030126e+02
158             	3.06054238e+02
159             	3.06078889e+02
160             	3.06103078e+02
161             	3.06122243e+02
162             	3.06139587e+02
163             	3.06157555e+02
164             	3.06176652e+02
165             	3.06196861e+02
166             	3.06217482e+02
167             	3.06239767e+02
168             	3.06261435e+02
169             	3.06281927e+02
170             	3.06302300e+02
171             	3.06325575e+02
172             	3.06347468e+02
173             	3.06368033e+02
174             	3.06387336e+02
175             	3.06409387e+02
176             	3.06431658e+02
177             	3.06447957e+02
178             	3.06466660e+02
179             	3.06483201e+02
180             	3.06499538e+02
181             	3.06515194e+02
182             	3.06531167e+02
183             	3.06548766e+02
184             	3.06568820e+02
185             	3.06588339e+02
186             	3.06606610e+02
187             	3.06624768e+02
188             	3.06641184e+02
189             	3.06656068e+02
190             	3.06670390e+02
191             	3.06685183e+02
192             	3.06700956e+02
193             	3.06716104e+02
194             	3.06730092e+02
195             	3.06743510e+02
196             	3.06755992e+02
197             	3.06768961e+02
198             	3.06782603e+02
199             	3.06796310e+02
200             	3.06809925e+02
201             	3.06823309e+02
202             	3.06837270e+02
203             	3.06852877e+02
204             	3.06869752e+02
205             	3.06885948e+02
206             	3.06901857e+02
207             	3.06916351e+02
208             	3.06931673e+02
209             	3.06944520e+02
210             	3.06955030e+02
211             	3.06964914e+02
212             	3.06975379e+02
213             	3.06986772e+02
214             	3.06999200e+02
215             	3.07011805e+02
216             	3.07023995e+02
217             	3.07036094e+02
218             	3.07049024e+02
219             	3.07061146e+02
220             	3.07072398e+02
221             	3.07083549e+02
222             	3.07095444e+02
223             	3.07108119e+02
224             	3.07120531e+02
225             	3.07131838e+02
226             	3.07143522e+02
227             	3.07155735e+02
228             	3.07165124e+02
229             	3.07173319e+02
230             	3.07181718e+02
231             	3.07190756e+02
232             	3.07200171e+02
233             	3.07209686e+02
234             	3.07219271e+02
235             	3.07228591e+02
236             	3.07238208e+02
237             	3.07248432e+02
238             	3.07258471e+02
239             	3.07268211e+02
240             	3.07277770e+02
241             	3.07287173e+02
242             	3.07296551e+02
243             	3.07306045e+02
244             	3.07315118e+02
245             	3.07323576e+02
246             	3.07331951e+02
247             	3.07340103e+02
248             	3.07348146e+02
249             	3.07355741e+02
250             	3.07363497e+02
251             	3.07371301e+02
252             	3.07379179e+02
253             	3.07387154e+02
254             	3.07395021e+02
255             	3.07402824e+02
256             	3.07410668e+02
257             	3.07418638e+02
258             	3.07426656e+02
259             	3.07434692e+02
260             	3.07442646e+02
261             	3.07450401e+02
262             	3.07457911e+02
263             	3.07464994e+02
264             	3.07472000e+02
265             	3.07478942e+02
266             	3.07485882e+02
267             	3.07492931e+02
268             	3.07499845e+02
269             	3.07506764e+02
270             	3.07513456e+02
271             	3.07520189e+02
272             	3.07526647e+02
273             	3.07532859e+02
274             	3.07538992e+02
275             	3.07545060e+02
276             	3.07551149e+02
277             	3.07557266e+02
278             	3.07563356e+02
279             	3.07569347e+02
280             	3.07575367e+02
281             	3.07581262e+02
282             	3.07587109e+02
283             	3.07592881e+02
284             	3.07598610e+02
285             	3.07604354e+02
286             	3.07610060e+02
287             	3.07615729e+02
288             	3.07621352e+02
289             	3.07626865e+02
290             	3.07632253e+02
291             	3.07637537e+02
292             	3.07642720e+02
293             	3.07647855e+02
294             	3.07652935e+02
295             	3.07658011e+02
296             	3.07663069e+02
297             	3.07668040e+02
298             	3.07672837e+02
299             	3.07677580e+02
300             	3.07682271e+02
301             	3.07686888e+02
302             	3.07691477e+02
303             	3.07696139e+02
304             	3.07700795e+02
305             	3.07705424e+02
306             	3.07709923e+02
307             	3.07714485e+02
308             	3.07718955e+02
309             	3.07723376e+02
310             	3.07727729e+02
311             	3.07732019e+02
312             	3.07736248e+02
313             	3.07740423e+02
314             	3.07744540e+02
315             	3.07748631e+02
316             	3.07752615e+02
317             	3.07756553e+02
318             	3.07760474e+02
319             	3.07764336e+02
320             	3.07768137e+02
321             	3.07771912e+02
322             	3.07775651e+02
323             	3.07779330e+02
324             	3.07782996e+02
325             	3.07786622e+02
326             	3.07790237e+02
327             	3.07793846e+02
328             	3.07797344e+02
329             	3.07800800e+02
330             	3.07804333e+02
331             	3.07807825e+02
332             	3.07811261e+02
333             	3.07814641e+02
334             	3.07817968e+02
335             	3.07821246e+02
336             	3.07824500e+02
337             	3.07827665e+02
338             	3.07830754e+02
339             	3.07833787e+02
340             	3.07836789e+02
341             	3.07839784e+02
342             	3.07842742e+02
343             	3.07845706e+02
344             	3.07848623e+02
345             	3.07851494e+02
346             	3.07854390e+02
347             	3.07857254e+02
348             	3.07860084e+02
349             	3.07862888e+02
350             	3.07865702e+02
351             	3.07868483e+02
352             	3.07871238e+02
353             	3.07873953e+02
354             	3.07876638e+02
355             	3.07879300e+02
356             	3.07881987e+02
357             	3.07884603e+02
358             	3.07887177e+02
359             	3.07889730e+02
360             	3.07892259e+02
361             	3.07894754e+02
362             	3.07897172e+02
363             	3.07899559e+02
364             	3.07901896e+02
365             	3.07904219e+02
366             	3.07906481e+02
367             	3.07908736e+02
368             	3.07910991e+02
369             	3.07913207e+02
370             	3.07915411e+02
371             	3.07917586e+02
372             	3.07919766e+02
373             	3.07921916e+02
374             	3.07924027e+02
375             	3.07926124e+02
376             	3.07928215e+02
377             	3.07930226e+02
378             	3.07932181e+02
379             	3.07934182e+02
380             	3.07936189e+02
381             	3.07938190e+02
382             	3.07940157e+02
383             	3.07942094e+02
384             	3.07944006e+02
385             	3.07945919e+02
386             	3.07947827e+02
387             	3.07949713e+02
388             	3.07951571e+02
389             	3.07953415e+02
390             	3.07955254e+02
391             	3.07957089e+02
392             	3.07958881e+02
393             	3.07960651e+02
394             	3.07962441e+02
395             	3.07964209e+02
396             	3.07965957e+02
397             	3.07967689e+02
398             	3.07969409e+02
399             	3.07971097e+02
400             	3.07972783e+02
401             	3.07974453e+02
402             	3.07976090e+02
403             	3.07977708e+02
404             	3.07979293e+02
405             	3.07980853e+02
406             	3.07982431e+02
407             	3.07983977e+02
408             	3.07985497e+02
409             	3.07986995e+02
410             	3.07988461e+02
411             	3.07989911e+02
412             	3.07991345e+02
413             	3.07992758e+02
414             	3.07994153e+02
415             	3.07995539e+02
416             	3.07996900e+02
417             	3.07998246e+02
418             	3.07999581e+02
419             	3.08000902e+02
420             	3.08002205e+02
421             	3.08003502e+02
422             	3.08004776e+02
423             	3.08006043e+02
424             	3.08007311e+02
425             	3.08008561e+02
426             	3.08009800e+02
427             	3.08011038e+02
428             	3.08012273e+02
429             	3.08013491e+02
430             	3.08014709e+02
431             	3.08015911e+02
432             	3.08017093e+02
433             	3.08018265e+02
434             	3.08019427e+02
435             	3.08020587e+02
436             	3.08021753e+02
437             	3.08022898e+02
438             	3.08024036e+02
439             	3.08025168e+02
440             	3.08026282e+02
441             	3.08027383e+02
442             	3.08028490e+02
443             	3.08029579e+02
444             	3.08030658e+02
445             	3.08031737e+02
446             	3.08032802e+02
447             	3.08033858e+02
448             	3.08034922e+02
449             	3.08035968e+02
450             	3.08037001e+02
451             	3.08038028e+02
452             	3.08039032e+02
453             	3.08040028e+02
454             	3.08041033e+02
455             	3.08042014e+02
456             	3.08042982e+02
457             	3.08043948e+02
458             	3.08044903e+02
459             	3.08045861e+02
460             	3.08046809e+02
461             	3.08047738e+02
462             	3.08048657e+02
463             	3.08049574e+02
464             	3.08050486e+02
465             	3.08051395e+02
466             	3.08052304e+02
467             	3.08053196e+02
468             	3.08054075e+02
469             	3.08054950e+02
470             	3.08055809e+02
471             	3.08056660e+02
472             	3.08057508e+02
473             	3.08058345e+02
474             	3.08059173e+02
475             	3.08060006e+02
476             	3.08060825e+02
477             	3.08061637e+02
478             	3.08062447e+02
479             	3.08063250e+02
480             	3.08064045e+02
481             	3.08064843e+02
482             	3.08065625e+02
483             	3.08066398e+02
484             	3.08067169e+02
485             	3.08067929e+02
486             	3.08068680e+02
487             	3.08069434e+02
488             	3.08070172e+02
489             	3.08070902e+02
490             	3.08071630e+02
491             	3.08072349e+02
492             	3.08073060e+02
493             	3.08073774e+02
494             	3.08074473e+02
495             	3.08075165e+02
496             	3.08075857e+02
497             	3.08076542e+02
498             	3.08077221e+02
499             	3.08077904e+02
500             	3.08078571e+02
501             	3.08079233e+02
502             	3.08079894e+02
503             	3.08080547e+02
504             	3.08081191e+02
505             	3.08081836e+02
506             	3.08082468e+02
507             	3.08083096e+02
508             	3.08083723e+02
509             	3.08084345e+02
510             	3.08084963e+02
511             	3.08085587e+02
512             	3.08086197e+02
513             	3.08086803e+02
514             	3.08087409e+02
515             	3.08088009e+02
516             	3.08088602e+02
517             	3.08089197e+02
518             	3.08089780e+02
519             	3.08090358e+02
520             	3.08090937e+02
521             	3.08091510e+02
522             	3.08092078e+02
523             	3.08092648e+02
524             	3.08093207e+02
525             	3.08093762e+02
526             	3.08094318e+02
527             	3.08094865e+02
528             	3.08095406e+02
529             	3.08095951e+02
530             	3.08096484e+02
531             	3.08097012e+02
532             	3.08097540e+02
533             	3.08098062e+02
534             	3.08098578e+02
535             	3.08099096e+02
536             	3.08099604e+02
537             	3.08100111e+02
538             	3.08100620e+02
539             	3.08101124e+02
540             	3.08101623e+02
541             	3.08102123e+02
542             	3.08102613e+02
543             	3.08103100e+02
544             	3.08103587e+02
545             	3.08104067e+02
546             	3.08104539e+02
547             	3.08105012e+02
548             	3.08105472e+02
549             	3.08105930e+02
550             	3.08106387e+02
551             	3.08106839e+02
552             	3.08107283e+02
553             	3.08107729e+02
554             	3.08108166e+02
555             	3.08108601e+02
556             	3.08109039e+02
557             	3.08109474e+02
558             	3.08109903e+02
559             	3.08110335e+02
560             	3.08110758e+02
561             	3.08111180e+02
562             	3.08111605e+02
563             	3.08112026e+02
564             	3.08112441e+02
565             	3.08112855e+02
566             	3.08113262e+02
567             	3.08113667e+02
568             	3.08114073e+02
569             	3.08114474e+02
570             	3.08114869e+02
571             	3.08115265e+02
572             	3.08115652e+02
573             	3.08116036e+02
574             	3.08116419e+02
575             	3.08116800e+02
576             	3.08117173e+02
577             	3.08117546e+02
578             	3.08117912e+02
579             	3.08118275e+02
580             	3.08118641e+02
581             	3.08119003e+02
582             	3.08119361e+02
583             	3.08119720e+02
584             	3.08120073e+02
585             	3.08120427e+02
586             	3.08120782e+02
587             	3.08121134e+02
588             	3.08121481e+02
589             	3.08121829e+02
590             	3.08122171e+02
591             	3.08122512e+02
592             	3.08122852e+02
593             	3.08123191e+02
594             	3.08123524e+02
595             	3.08123859e+02
596             	3.08124188e+02
597             	3.08124515e+02
598             	3.08124843e+02
599             	3.08125168e+02
600             	3.08125487e+02
601             	3.08125805e+02
602             	3.08126117e+02
603             	3.08126428e+02
604             	3.08126739e+02
605             	3.08127046e+02
606             	3.08127347e+02
607             	3.08127648e+02
608             	3.08127944e+02
609             	3.08128239e+02
610             	3.08128535e+02
611             	3.08128826e+02
612             	3.08129113e+02
613             	3.08129400e+02
614             	3.08129684e+02
615             	3.08129967e+02
616             	3.08130252e+02
617             	3.08130535e+02
618             	3.08130814e+02
619             	3.08131094e+02
620             	3.08131372e+02
621             	3.08131649e+02
622             	3.08131927e+02
623             	3.08132203e+02
624             	3.08132475e+02
625             	3.08132748e+02
626             	3.08133017e+02
627             	3.08133285e+02
628             	3.08133554e+02
629             	3.08133821e+02
630             	3.08134084e+02
631             	3.08134346e+02
632             	3.08134605e+02
633             	3.08134863e+02
634             	3.08135121e+02
635             	3.08135374e+02
636             	3.08135623e+02
637             	3.08135872e+02
638             	3.08136116e+02
639             	3.08136359e+02
640             	3.08136602e+02
641             	3.08136842e+02
642             	3.08137079e+02
643             	3.08137315e+02
644             	3.08137548e+02
645             	3.08137782e+02
646             	3.08138015e+02
647             	3.08138246e+02
648             	3.08138473e+02
649             	3.08138699e+02
650             	3.08138923e+02
651             	3.08139147e+02
652             	3.08139370e+02
653             	3.08139590e+02
654             	3.08139807e+02
655             	3.08140025e+02
656             	3.08140241e+02
657             	3.08140457e+02
658             	3.08140673e+02
659             	3.08140888e+02
660             	3.08141100e+02
661             	3.08141313e+02
662             	3.08141523e+02
663             	3.08141733e+02
664             	3.08141944e+02
665             	3.08142151e+02
666             	3.08142355e+02
667             	3.08142558e+02
668             	3.08142759e+02
669             	3.08142959e+02
670             	3.08143161e+02
671             	3.08143360e+02
672             	3.08143556e+02
673             	3.08143753e+02
674             	3.08143948e+02
675             	3.08144143e+02
676             	3.08144338e+02
677             	3.08144531e+02
678             	3.08144720e+02
679             	3.08144909e+02
680             	3.08145096e+02
681             	3.08145283e+02
682             	3.08145471e+02
683             	3.08145656e+02
684             	3.08145839e+02
685             	3.08146022e+02
686             	3.08146203e+02
687             	3.08146385e+02
688             	3.08146569e+02
689             	3.08146749e+02
690             	3.08146927e+02
691             	3.08147104e+02
692             	3.08147281e+02
693             	3.08147458e+02
694             	3.08147635e+02
695             	3.08147809e+02
696             	3.08147980e+02
697             	3.08148149e+02
698             	3.08148316e+02
699             	3.08148482e+02
700             	3.08148648e+02
701             	3.08148811e+02
702             	3.08148970e+02
703             	3.08149130e+02
704             	3.08149287e+02
705             	3.08149445e+02
706             	3.08149603e+02
707             	3.08149758e+02
708             	3.08149912e+02
709             	3.08150068e+02
710             	3.08150224e+02
711             	3.08150380e+02
712             	3.08150538e+02
713             	3.08150693e+02
714             	3.08150847e+02
715             	3.08151000e+02
716             	3.08151152e+02
717             	3.08151305e+02
718             	3.08151459e+02
719             	3.08151610e+02
720             	3.08151759e+02
721             	3.08151910e+02
722             	3.08152058e+02
723             	3.08152208e+02
724             	3.08152358e+02
725             	3.08152506e+02
726             	3.08152651e+02
727             	3.08152796e+02
728             	3.08152939e+02
729             	3.08153082e+02
730             	3.08153225e+02
731             	3.08153364e+02
732             	3.08153501e+02
733             	3.08153637e+02
734             	3.08153771e+02
735             	3.08153905e+02
736             	3.08154041e+02
737             	3.08154174e+02
738             	3.08154305e+02
739             	3.08154435e+02
740             	3.08154565e+02
741             	3.08154695e+02
742             	3.08154826e+02
743             	3.08154954e+02
744             	3.08155079e+02
745             	3.08155205e+02
746             	3.08155329e+02
747             	3.08155455e+02
748             	3.08155580e+02
749             	3.08155704e+02
750             	3.08155827e+02
751             	3.08155950e+02
752             	3.08156072e+02
753             	3.08156195e+02
754             	3.08156319e+02
755             	3.08156440e+02
756             	3.08156560e+02
757             	3.08156680e+02
758             	3.08156801e+02
759             	3.08156921e+02
760             	3.08157042e+02
761             	3.08157161e+02
762             	3.08157277e+02
763             	3.08157394e+02
764             	3.08157509e+02
765             	3.08157625e+02
766             	3.08157741e+02
767             	3.08157854e+02
768             	3.08157965e+02
769             	3.08158077e+02
770             	3.08158187e+02
771             	3.08158298e+02
772             	3.08158410e+02
773             	3.08158518e+02
774             	3.08158626e+02
775             	3.08158732e+02
776             	3.08158838e+02
777             	3.08158944e+02
778             	3.08159051e+02
779             	3.08159155e+02
780             	3.08159257e+02
781             	3.08159360e+02
782             	3.08159461e+02
783             	3.08159564e+02
784             	3.08159668e+02
785             	3.08159769e+02
786             	3.08159869e+02
787             	3.08159969e+02
788             	3.08160069e+02
789             	3.08160170e+02
790             	3.08160271e+02
791             	3.08160370e+02
792             	3.08160468e+02
793             	3.08160565e+02
794             	3.08160661e+02
795             	3.08160758e+02
796             	3.08160854e+02
797             	3.08160948e+02
798             	3.08161039e+02
799             	3.08161131e+02
800             	3.08161223e+02
801             	3.08161315e+02
802             	3.08161407e+02
803             	3.08161499e+02
804             	3.08161588e+02
805             	3.08161678e+02
806             	3.08161767e+02
807             	3.08161858e+02
808             	3.08161948e+02
809             	3.08162036e+02
810             	3.08162123e+02
811             	3.08162211e+02
812             	3.08162298e+02
813             	3.08162387e+02
814             	3.08162478e+02
815             	3.08162565e+02
816             	3.08162653e+02
817             	3.08162740e+02
818             	3.08162828e+02
819             	3.08162915e+02
820             	3.08163003e+02
821             	3.08163088e+02
822             	3.08163171e+02
823             	3.08163254e+02
824             	3.08163334e+02
825             	3.08163415e+02
826             	3.08163497e+02
827             	3.08163575e+02
828             	3.08163652e+02
829             	3.08163729e+02
830             	3.08163805e+02
831             	3.08163882e+02
832             	3.08163959e+02
833             	3.08164034e+02
834             	3.08164107e+02
835             	3.08164181e+02
836             	3.08164254e+02
837             	3.08164329e+02
838             	3.08164404e+02
839             	3.08164477e+02
840             	3.08164549e+02
841             	3.08164621e+02
842             	3.08164693e+02
843             	3.08164765e+02
844             	3.08164838e+02
845             	3.08164909e+02
846             	3.08164978e+02
847             	3.08165048e+02
848             	3.08165117e+02
849             	3.08165188e+02
850             	3.08165260e+02
851             	3.08165330e+02
852             	3.08165399e+02
853             	3.08165468e+02
854             	3.08165538e+02
855             	3.08165608e+02
856             	3.08165679e+02
857             	3.08165747e+02
858             	3.08165815e+02
859             	3.08165882e+02
860             	3.08165949e+02
861             	3.08166017e+02
862             	3.08166085e+02
863             	3.08166150e+02
864             	3.08166215e+02
865             	3.08166279e+02
866             	3.08166342e+02
867             	3.08166407e+02
868             	3.08166473e+02
869             	3.08166536e+02
870             	3.08166599e+02
871             	3.08166661e+02
872             	3.08166723e+02
873             	3.08166787e+02
874             	3.08166851e+02
875             	3.08166912e+02
876             	3.08166973e+02
877             	3.08167033e+02
878             	3.08167093e+02
879             	3.08167154e+02
880             	3.08167216e+02
881             	3.08167276e+02
882             	3.08167335e+02
883             	3.08167394e+02
884             	3.08167452e+02
885             	3.08167511e+02
886             	3.08167572e+02
887             	3.08167630e+02
888             	3.08167687e+02
889             	3.08167746e+02
890             	3.08167803e+02
891             	3.08167863e+02
892             	3.08167922e+02
893             	3.08167980e+02
894             	3.08168036e+02
895             	3.08168093e+02
896             	3.08168149e+02
897             	3.08168207e+02
898             	3.08168265e+02
899             	3.08168321e+02
900             	3.08168377e+02
901             	3.08168432e+02
902             	3.08168488e+02
903             	3.08168544e+02
904             	3.08168602e+02
905             	3.08168657e+02
906             	3.08168712e+02
907             	3.08168767e+02
908             	3.08168822e+02
909             	3.08168877e+02
910             	3.08168933e+02
911             	3.08168987e+02
912             	3.08169039e+02
913             	3.08169091e+02
914             	3.08169142e+02
915             	3.08169195e+02
916             	3.08169248e+02
917             	3.08169298e+02
918             	3.08169348e+02
919             	3.08169397e+02
920             	3.08169446e+02
921             	3.08169496e+02
922             	3.08169546e+02
923             	3.08169595e+02
924             	3.08169642e+02
925             	3.08169694e+02
926             	3.08169742e+02
927             	3.08169792e+02
928             	3.08169843e+02
929             	3.08169892e+02
930             	3.08169941e+02
931             	3.08169994e+02
932             	3.08170043e+02
933             	3.08170094e+02