# Region        : cellZone fluid
# Cells         : 8864
# Volume        : 1.76459265e+01
# Time          	volAverage(T)
1               	3.00000124e+02
2               	3.00000211e+02
3               	3.00000960e+02
4               	3.00001992e+02
5               	3.00002826e+02
6               	3.00003794e+02
7               	3.00004999e+02
8               	3.00006510e+02
9               	3.00008244e+02
10              	3.00010486e+02
11              	3.00012765e+02
12              	3.00015373e+02
13              	3.00019068e+02
14              	3.00022343e+02
15              	3.00026024e+02
16              	3.00029285e+02
17              	3.00032119e+02
18              	3.00035539e+02
19              	3.00038326e+02
20              	3.00041993e+02
21              	3.00045443e+02
22              	3.00048823e+02
23              	3.00053186e+02
24              	3.00057564e+02
25              	3.00061421e+02
26              	3.00066139e+02
27              	3.00070521e+02
28              	3.00075430e+02
29              	3.00080422e+02
30              	3.00084485e+02
31              	3.00088266e+02
32              	3.00093510e+02
33              	3.00098680e+02
34              	3.00105785e+02
35              	3.00111671e+02
36              	3.00118644e+02
37              	3.00124504e+02
38              	3.00130957e+02
39              	3.00135357e+02
40              	3.00139856e+02
41              	3.00144022e+02
42              	3.00148994e+02
43              	3.00154430e+02
44              	3.00161339e+02
45              	3.00167580e+02
46              	3.00173178e+02
47              	3.00178674e+02
48              	3.00184646e+02
49              	3.00190872e+02
50              	3.00196310e+02
51              	3.00201621e+02
52              	3.00206246e+02
53              	3.00212177e+02
54              	3.00216581e+02
55              	3.00222620e+02
56              	3.00228299e+02
57              	3.00231974e+02
58              	3.00234936e+02
59              	3.00238341e+02
60              	3.00244041e+02
61              	3.00249918e+02
62              	3.00255051e+02
63              	3.00260513e+02
64              	3.00266516e+02
65              	3.00272785e+02
66              	3.00279879e+02
67              	3.00286383e+02
68              	3.00293186e+02
69              	3.00300953e+02
70              	3.00306877e+02
71              	3.00312347e+02
72              	3.00317123e+02
73              	3.00321869e+02
74              	3.00326937e+02
75              	3.00331328e+02
76              	3.00335428e+02
77              	3.00339784e+02
78              	3.00344849e+02
79              	3.00349789e+02
80              	3.00353801e+02
81              	3.00358888e+02
82              	3.00362634e+02
83              	3.00365897e+02
84              	3.00369498e+02
85              	3.00372883e+02
86              	3.00375979e+02
87              	3.00378231e+02
88              	3.00383640e+02
89              	3.00388464e+02
90              	3.00391168e+02
91              	3.00395131e+02
92              	3.00399266e+02
93              	3.00404338e+02
94              	3.00409216e+02
95              	3.00413259e+02
96              	3.00418168e+02
97              	3.00423405e+02
98              	3.00427758e+02
99              	3.00431227e+02
100             	3.00434723e+02
101             	3.00438880e+02
102             	3.00442289e+02
103             	3.00445756e+02
104             	3.00449848e+02
105             	3.00451950e+02
106             	3.00455597e+02
107             	3.00457997e+02
108             	3.00460397e+02
109             	3.00462262e+02
110             	3.00464138e+02
111             	3.00465572e+02
112             	3.00466738e+02
113             	3.00468155e+02
114             	3.00472656e+02
115             	3.00477316e+02
116             	3.00477817e+02
117             	3.00479143e+02
118             	3.00481326e+02
119             	3.00484873e+02
120             	3.00486515e+02
121             	3.00489643e+02
122             	3.00491741e+02
123             	3.00495490e+02
124             	3.00497797e+02
125             	3.00500498e+02
126             	3.00502686e+02
127             	3.00505543e+02
128             	3.00510531e+02
129             	3.00514560e+02
130             	3.00515533e+02
131             	3.00518615e+02
132             	3.00520071e+02
133             	3.00521991e+02
134             	3.00523504e+02
135             	3.00525433e+02
136             	3.00526836e+02
137             	3.00528630e+02
138             	3.00530296e+02
139             	3.00533675e+02
140             	3.00535943e+02
141             	3.00538055e+02
142             	3.00539589e+02
143             	3.00539494e+02
144             	3.00541196e+02
145             	3.00541738e+02
146             	3.00542659e+02
147             	3.00543488e+02
148             	3.00544779e+02
149             	3.00547643e+02
150             	3.00547313e+02
151             	3.00547961e+02
152             	3.00548701e+02
153             	3.00549527e+02
154             	3.00550353e+02
155             	3.00551282e+02
156             	3.00551514e+02
157             	3.00552509e+02
158             	3.00554613e+02
159             	3.00556221e+02
160             	3.00557640e+02
161             	3.00558940e+02
162             	3.00560244e+02
163             	3.00561730e+02
164             	3.00561952e+02
165             	3.00562280e+02
166             	3.00562145e+02
167             	3.00562323e+02
168             	3.00562641e+02
169             	3.00563731e+02
170             	3.00565176e+02
171             	3.00565255e+02
172             	3.00566138e+02
173             	3.00567185e+02
174             	3.00568140e+02
175             	3.00568653e+02
176             	3.00569632e+02
177             	3.00569427e+02
178             	3.00569754e+02
179             	3.00571420e+02
180             	3.00572247e+02
181             	3.00572755e+02
182             	3.00573218e+02
183             	3.00573927e+02
184             	3.00574713e+02
185             	3.00575044e+02
186             	3.00575449e+02
187             	3.00576034e+02
188             	3.00576689e+02
189             	3.00577150e+02
190             	3.00577981e+02
191             	3.00578821e+02
192             	3.00579621e+02
193             	3.00580487e+02
194             	3.00581352e+02
195             	3.00582193e+02
196             	3.00582817e+02
197             	3.00583432e+02
198             	3.00583984e+02
199             	3.00584499e+02
200             	3.00585356e+02
201             	3.00586370e+02
202             	3.00587258e+02
203             	3.00588187e+02
204             	3.00589248e+02
205             	3.00590306e+02
206             	3.00591200e+02
207             	3.00591667e+02
208             	3.00591950e+02
209             	3.00592527e+02
210             	3.00592891e+02
211             	3.00593108e+02
212             	3.00593414e+02
213             	3.00593731e+02
214             	3.00594045e+02
215             	3.00594251e+02
216             	3.00594513e+02
217             	3.00594777e+02
218             	3.00595157e+02
219             	3.00595393e+02
220             	3.00595591e+02
221             	3.00595938e+02
222             	3.00596039e+02
223             	3.00596228e+02
224             	3.00596513e+02
225             	3.00596902e+02
226             	3.00597289e+02
227             	3.00597691e+02
228             	3.00598098e+02
229             	3.00598512e+02
230             	3.00598893e+02
231             	3.00599267e+02
232             	3.00599710e+02
233             	3.00600125e+02
234             	3.00600510e+02
235             	3.00600654e+02
236             	3.00601146e+02
237             	3.00601621e+02
238             	3.00602020e+02
239             	3.00602308e+02
240             	3.00602674e+02
241             	3.00603081e+02
242             	3.00603505e+02
243             	3.00603741e+02
244             	3.00604007e+02
245             	3.00604288e+02
246             	3.00604588e+02
247             	3.00604795e+02
248             	3.00605072e+02
249             	3.00605354e+02
250             	3.00605629e+02
251             	3.00605928e+02
252             	3.00606235e+02
253             	3.00606580e+02
254             	3.00606975e+02
255             	3.00607321e+02
256             	3.00607750e+02
257             	3.00608256e+02
258             	3.00608741e+02
259             	3.00609211e+02
260             	3.00609664e+02
261             	3.00610089e+02
262             	3.00610390e+02
263             	3.00610680e+02
264             	3.00611032e+02
265             	3.00611388e+02
266             	3.00611758e+02
267             	3.00612079e+02
268             	3.00612379e+02
269             	3.00612738e+02
270             	3.00613048e+02
271             	3.00613471e+02
272             	3.00613866e+02
273             	3.00614043e+02
274             	3.00614320e+02
275             	3.00614650e+02
276             	3.00614947e+02
277             	3.00615164e+02
278             	3.00615467e+02
279             	3.00615769e+02
280             	3.00616028e+02
281             	3.00616277e+02
282             	3.00616513e+02
283             	3.00616775e+02
284             	3.00616991e+02
285             	3.00617243e+02
286             	3.00617476e+02
287             	3.00617703e+02
288             	3.00617921e+02
289             	3.00618134e+02
290             	3.00618338e+02
291             	3.00618539e+02
292             	3.00618720e+02
293             	3.00618935e+02
294             	3.00619060e+02
295             	3.00619185e+02
296             	3.00619324e+02
297             	3.00619474e+02
298             	3.00619665e+02
299             	3.00619898e+02
300             	3.00620108e+02
301             	3.00620320e+02
302             	3.00620548e+02
303             	3.00620799e+02
304             	3.00621049e+02
305             	3.00621240e+02
306             	3.00621391e+02
307             	3.00621492e+02
308             	3.00621725e+02
309             	3.00621901e+02
310             	3.00622067e+02
311             	3.00622256e+02
312             	3.00622469e+02
313             	3.00622651e+02
314             	3.00622824e+02
315             	3.00623034e+02
316             	3.00623206e+02
317             	3.00623348e+02
318             	3.00623501e+02
319             	3.00623626e+02
320             	3.00623758e+02
321             	3.00623877e+02
322             	3.00624015e+02
323             	3.00624171e+02
324             	3.00624333e+02
325             	3.00624498e+02
326             	3.00624672e+02
327             	3.00624815e+02
328             	3.00624946e+02
329             	3.00625066e+02
330             	3.00625196e+02
331             	3.00625330e+02
332             	3.00625452e+02
333             	3.00625569e+02
334             	3.00625707e+02
335             	3.00625876e+02
336             	3.00626027e+02
337             	3.00626167e+02
338             	3.00626286e+02
339             	3.00626386e+02
340             	3.00626468e+02
341             	3.00626549e+02
342             	3.00626625e+02
343             	3.00626698e+02
344             	3.00626780e+02
345             	3.00626871e+02
346             	3.00626968e+02
347             	3.00627058e+02
348             	3.00627156e+02
349             	3.00627263e+02
350             	3.00627342e+02
351             	3.00627392e+02
352             	3.00627461e+02
353             	3.00627532e+02
354             	3.00627607e+02
355             	3.00627688e+02
356             	3.00627781e+02
357             	3.00627871e+02
358             	3.00627964e+02
359             	3.00628068e+02
360             	3.00628172e+02
361             	3.00628270e+02
362             	3.00628356e+02
363             	3.00628441e+02
364             	3.00628526e+02
365             	3.00628603e+02
366             	3.00628673e+02
367             	3.00628755e+02
368             	3.00628848e+02
369             	3.00628936e+02
370             	3.00629021e+02
371             	3.00629100e+02
372             	3.00629170e+02
373             	3.00629229e+02
374             	3.00629295e+02
375             	3.00629356e+02
376             	3.00629408e+02
377             	3.00629457e+02
378             	3.00629511e+02
379             	3.00629574e+02
380             	3.00629645e+02
381             	3.00629704e+02
382             	3.00629772e+02
383             	3.00629844e+02
384             	3.00629898e+02
385             	3.00629943e+02
386             	3.00629997e+02
387             	3.00630052e+02
388             	3.00630107e+02
389             	3.00630165e+02
390             	3.00630231e+02
391             	3.00630303e+02
392             	3.00630364e+02
393             	3.00630434e+02
394             	3.00630496e+02
395             	3.00630548e+02
396             	3.00630593e+02
397             	3.00630637e+02
398             	3.00630681e+02
399             	3.00630727e+02
400             	3.00630771e+02
401             	3.00630811e+02
402             	3.00630850e+02
403             	3.00630896e+02
404             	3.00630931e+02
405             	3.00630976e+02
406             	3.00631011e+02
407             	3.00631041e+02
408             	3.00631075e+02
409             	3.00631110e+02
410             	3.00631145e+02
411             	3.00631183e+02
412             	3.00631222e+02
413             	3.00631264e+02
414             	3.00631306e+02
415             	3.00631347e+02
416             	3.00631387e+02
417             	3.00631425e+02
418             	3.00631464e+02
419             	3.00631502e+02
420             	3.00631531e+02
421             	3.00631575e+02
422             	3.00631613e+02
423             	3.00631651e+02
424             	3.00631687e+02
425             	3.00631726e+02
426             	3.00631769e+02
427             	3.00631807e+02
428             	3.00631829e+02
429             	3.00631858e+02
430             	3.00631890e+02
431             	3.00631922e+02
432             	3.00631951e+02
433             	3.00631980e+02
434             	3.00632023e+02
435             	3.00632059e+02
436             	3.00632092e+02
437             	3.00632120e+02
438             	3.00632145e+02
439             	3.00632174e+02
440             	3.00632186e+02
441             	3.00632203e+02
442             	3.00632222e+02
443             	3.00632244e+02
444             	3.00632275e+02
445             	3.00632301e+02
446             	3.00632328e+02
447             	3.00632360e+02
448             	3.00632392e+02
449             	3.00632422e+02
450             	3.00632445e+02
451             	3.00632455e+02
452             	3.00632479e+02
453             	3.00632495e+02
454             	3.00632511e+02
455             	3.00632532e+02
456             	3.00632554e+02
457             	3.00632576e+02
458             	3.00632598e+02
459             	3.00632618e+02
460             	3.00632634e+02
461             	3.00632651e+02
462             	3.00632669e+02
463             	3.00632687e+02
464             	3.00632698e+02
465             	3.00632715e+02
466             	3.00632728e+02
467             	3.00632745e+02
468             	3.00632758e+02
469             	3.00632774e+02
470             	3.00632792e+02
471             	3.00632809e+02
472             	3.00632831e+02
473             	3.00632846e+02
474             	3.00632862e+02
475             	3.00632880e+02
476             	3.00632895e+02
477             	3.00632912e+02
478             	3.00632928e+02
479             	3.00632942e+02
480             	3.00632958e+02
481             	3.00632974e+02
482             	3.00632987e+02
483             	3.00633003e+02
484             	3.00633015e+02
485             	3.00633033e+02
486             	3.00633048e+02
487             	3.00633060e+02
488             	3.00633072e+02
489             	3.00633083e+02
490             	3.00633091e+02
491             	3.00633101e+02
492             	3.00633110e+02
493             	3.00633119e+02
494             	3.00633131e+02
495             	3.00633145e+02
496             	3.00633161e+02
497             	3.00633172e+02
498             	3.00633183e+02
499             	3.00633194e+02
500             	3.00633204e+02
501             	3.00633215e+02
502             	3.00633226e+02
503             	3.00633230e+02
504             	3.00633242e+02
505             	3.00633260e+02
506             	3.00633274e+02
507             	3.00633285e+02
508             	3.00633302e+02
509             	3.00633311e+02
510             	3.00633314e+02
511             	3.00633320e+02
512             	3.00633328e+02
513             	3.00633336e+02
514             	3.00633346e+02
515             	3.00633352e+02
516             	3.00633364e+02
517             	3.00633374e+02
518             	3.00633384e+02
519             	3.00633393e+02
520             	3.00633402e+02
521             	3.00633411e+02
522             	3.00633419e+02
523             	3.00633426e+02
524             	3.00633432e+02
525             	3.00633438e+02
526             	3.00633442e+02
527             	3.00633447e+02
528             	3.00633453e+02
529             	3.00633459e+02
530             	3.00633465e+02
531             	3.00633471e+02
532             	3.00633480e+02
533             	3.00633486e+02
534             	3.00633494e+02
535             	3.00633499e+02
536             	3.00633506e+02
537             	3.00633513e+02
538             	3.00633519e+02
539             	3.00633525e+02
540             	3.00633532e+02
541             	3.00633538e+02
542             	3.00633545e+02
543             	3.00633551e+02
544             	3.00633558e+02
545             	3.00633563e+02
546             	3.00633568e+02
547             	3.00633573e+02
548             	3.00633578e+02
549             	3.00633583e+02
550             	3.00633589e+02
551             	3.00633594e+02
552             	3.00633600e+02
553             	3.00633606e+02
554             	3.00633611e+02
555             	3.00633617e+02
556             	3.00633621e+02
557             	3.00633626e+02
558             	3.00633630e+02
559             	3.00633633e+02
560             	3.00633636e+02
561             	3.00633640e+02
562             	3.00633644e+02
563             	3.00633648e+02
564             	3.00633652e+02
565             	3.00633657e+02
566             	3.00633661e+02
567             	3.00633665e+02
568             	3.00633670e+02
569             	3.00633674e+02
570             	3.00633678e+02
571             	3.00633683e+02
572             	3.00633687e+02
573             	3.00633692e+02
574             	3.00633697e+02
575             	3.00633701e+02
576             	3.00633706e+02
577             	3.00633710e+02
578             	3.00633713e+02
579             	3.00633717e+02
580             	3.00633721e+02
581             	3.00633724e+02
582             	3.00633728e+02
583             	3.00633732e+02
584             	3.00633735e+02
585             	3.00633738e+02
586             	3.00633741e+02
587             	3.00633744e+02
588             	3.00633747e+02
589             	3.00633750e+02
590             	3.00633753e+02
591             	3.00633755e+02
592             	3.00633758e+02
593             	3.00633761e+02
594             	3.00633764e+02
595             	3.00633767e+02
596             	3.00633769e+02
597             	3.00633772e+02
598             	3.00633774e+02
599             	3.00633777e+02
600             	3.00633780e+02
601             	3.00633782e+02
602             	3.00633784e+02
603             	3.00633787e+02
604             	3.00633789e+02
605             	3.00633792e+02
606             	3.00633793e+02
607             	3.00633795e+02
608             	3.00633798e+02
609             	3.00633800e+02
610             	3.00633802e+02
611             	3.00633805e+02
612             	3.00633807e+02
613             	3.00633810e+02
614             	3.00633812e+02
615             	3.00633815e+02
616             	3.00633817e+02
617             	3.00633819e+02
618             	3.00633821e+02
619             	3.00633822e+02
620             	3.00633824e+02
621             	3.00633826e+02
622             	3.00633828e+02
623             	3.00633829e+02
624             	3.00633831e+02
625             	3.00633833e+02
626             	3.00633834e+02
627             	3.00633836e+02
628             	3.00633838e+02
629             	3.00633839e+02
630             	3.00633841e+02
631             	3.00633842e+02
632             	3.00633844e+02
633             	3.00633846e+02
634             	3.00633847e+02
635             	3.00633849e+02
636             	3.00633850e+02
637             	3.00633852e+02
638             	3.00633853e+02
639             	3.00633855e+02
640             	3.00633856e+02
641             	3.00633858e+02
642             	3.00633859e+02
643             	3.00633860e+02
644             	3.00633862e+02
645             	3.00633863e+02
646             	3.00633864e+02
647             	3.00633865e+02
648             	3.00633867e+02
649             	3.00633868e+02
650             	3.00633869e+02
651             	3.00633870e+02
652             	3.00633871e+02
653             	3.00633872e+02
654             	3.00633873e+02
655             	3.00633874e+02
656             	3.00633875e+02
657             	3.00633877e+02
658             	3.00633878e+02
659             	3.00633879e+02
660             	3.00633880e+02
661             	3.00633881e+02
662             	3.00633882e+02
663             	3.00633882e+02
664             	3.00633883e+02
665             	3.00633884e+02
666             	3.00633885e+02
667             	3.00633887e+02
668             	3.00633888e+02
669             	3.00633889e+02
670             	3.00633890e+02
671             	3.00633891e+02
672             	3.00633892e+02
673             	3.00633893e+02
674             	3.00633894e+02
675             	3.00633895e+02
676             	3.00633897e+02
677             	3.00633898e+02
678             	3.00633899e+02
679             	3.00633900e+02
680             	3.00633901e+02
681             	3.00633902e+02
682             	3.00633903e+02
683             	3.00633904e+02
684             	3.00633905e+02
685             	3.00633905e+02
686             	3.00633906e+02
687             	3.00633906e+02
688             	3.00633907e+02
689             	3.00633907e+02
690             	3.00633908e+02
691             	3.00633908e+02
692             	3.00633909e+02
693             	3.00633909e+02
694             	3.00633910e+02
695             	3.00633910e+02
696             	3.00633911e+02
697             	3.00633911e+02
698             	3.00633912e+02
699             	3.00633912e+02
700             	3.00633913e+02
701             	3.00633913e+02
702             	3.00633914e+02
703             	3.00633914e+02
704             	3.00633915e+02
705             	3.00633915e+02
706             	3.00633916e+02
707             	3.00633916e+02
708             	3.00633917e+02
709             	3.00633917e+02
710             	3.00633917e+02
711             	3.00633918e+02
712             	3.00633918e+02
713             	3.00633918e+02
714             	3.00633919e+02
715             	3.00633919e+02
716             	3.00633919e+02
717             	3.00633920e+02
718             	3.00633920e+02
719             	3.00633920e+02
720             	3.00633920e+02
721             	3.00633920e+02
722             	3.00633920e+02
723             	3.00633921e+02
724             	3.00633921e+02
725             	3.00633921e+02
726             	3.00633922e+02
727             	3.00633922e+02
728             	3.00633923e+02
729             	3.00633923e+02
730             	3.00633923e+02
731             	3.00633924e+02
732             	3.00633925e+02
733             	3.00633925e+02
734             	3.00633926e+02
735             	3.00633926e+02
736             	3.00633926e+02
737             	3.00633927e+02
738             	3.00633928e+02
739             	3.00633928e+02
740             	3.00633928e+02
741             	3.00633929e+02
742             	3.00633929e+02
743             	3.00633929e+02
744             	3.00633930e+02
745             	3.00633930e+02
746             	3.00633931e+02
747             	3.00633931e+02
748             	3.00633931e+02
749             	3.00633931e+02
750             	3.00633931e+02
751             	3.00633931e+02
752             	3.00633932e+02
753             	3.00633932e+02
754             	3.00633932e+02
755             	3.00633933e+02
756             	3.00633933e+02
757             	3.00633933e+02
758             	3.00633934e+02
759             	3.00633934e+02
760             	3.00633934e+02
761             	3.00633934e+02
762             	3.00633934e+02
763             	3.00633934e+02
764             	3.00633934e+02
765             	3.00633934e+02
766             	3.00633934e+02
767             	3.00633935e+02
768             	3.00633935e+02
769             	3.00633935e+02
770             	3.00633935e+02
771             	3.00633935e+02
772             	3.00633935e+02
773             	3.00633935e+02
774             	3.00633935e+02
775             	3.00633935e+02
776             	3.00633935e+02
777             	3.00633935e+02
778             	3.00633936e+02
779             	3.00633935e+02
780             	3.00633936e+02
781             	3.00633936e+02
782             	3.00633936e+02
783             	3.00633936e+02
784             	3.00633936e+02
785             	3.00633936e+02
786             	3.00633936e+02
787             	3.00633936e+02
788             	3.00633937e+02
789             	3.00633937e+02
790             	3.00633937e+02
791             	3.00633937e+02
792             	3.00633937e+02
793             	3.00633937e+02
794             	3.00633937e+02
795             	3.00633937e+02
796             	3.00633937e+02
797             	3.00633937e+02
798             	3.00633937e+02
799             	3.00633937e+02
800             	3.00633937e+02
801             	3.00633937e+02
802             	3.00633937e+02
803             	3.00633937e+02
804             	3.00633937e+02
805             	3.00633937e+02
806             	3.00633937e+02
807             	3.00633937e+02
808             	3.00633937e+02
809             	3.00633937e+02
810             	3.00633937e+02
811             	3.00633937e+02
812             	3.00633937e+02
813             	3.00633937e+02
814             	3.00633937e+02
815             	3.00633937e+02
816             	3.00633938e+02
817             	3.00633938e+02
818             	3.00633938e+02
819             	3.00633938e+02
820             	3.00633938e+02
821             	3.00633938e+02
822             	3.00633938e+02
823             	3.00633938e+02
824             	3.00633938e+02
825             	3.00633938e+02
826             	3.00633938e+02
827             	3.00633938e+02
828             	3.00633938e+02
829             	3.00633938e+02
830             	3.00633938e+02
831             	3.00633938e+02
832             	3.00633938e+02
833             	3.00633938e+02
834             	3.00633938e+02
835             	3.00633938e+02
836             	3.00633938e+02
837             	3.00633938e+02
838             	3.00633938e+02
839             	3.00633939e+02
840             	3.00633939e+02
841             	3.00633939e+02
842             	3.00633939e+02
843             	3.00633939e+02
844             	3.00633939e+02
845             	3.00633939e+02
846             	3.00633939e+02
847             	3.00633939e+02
848             	3.00633939e+02
849             	3.00633939e+02
850             	3.00633939e+02
851             	3.00633939e+02
852             	3.00633939e+02
853             	3.00633939e+02
854             	3.00633939e+02
855             	3.00633939e+02
856             	3.00633939e+02
857             	3.00633939e+02
858             	3.00633939e+02
859             	3.00633939e+02
860             	3.00633938e+02
861             	3.00633939e+02
862             	3.00633939e+02
863             	3.00633939e+02
864             	3.00633940e+02
865             	3.00633940e+02
866             	3.00633940e+02
867             	3.00633940e+02
868             	3.00633940e+02
869             	3.00633940e+02
870             	3.00633939e+02
871             	3.00633939e+02
872             	3.00633939e+02
873             	3.00633939e+02
874             	3.00633939e+02
875             	3.00633939e+02
876             	3.00633939e+02
877             	3.00633939e+02
878             	3.00633939e+02
879             	3.00633939e+02
880             	3.00633939e+02
881             	3.00633939e+02
882             	3.00633939e+02
883             	3.00633939e+02
884             	3.00633939e+02
885             	3.00633939e+02
886             	3.00633939e+02
887             	3.00633939e+02
888             	3.00633939e+02
889             	3.00633939e+02
890             	3.00633939e+02
891             	3.00633939e+02
892             	3.00633939e+02
893             	3.00633939e+02
894             	3.00633939e+02
895             	3.00633939e+02
896             	3.00633939e+02
897             	3.00633939e+02
898             	3.00633939e+02
899             	3.00633939e+02
900             	3.00633939e+02
901             	3.00633939e+02
902             	3.00633939e+02
903             	3.00633939e+02
904             	3.00633939e+02
905             	3.00633939e+02
906             	3.00633939e+02
907             	3.00633939e+02
908             	3.00633939e+02
909             	3.00633939e+02
910             	3.00633939e+02
911             	3.00633939e+02
912             	3.00633939e+02
913             	3.00633939e+02
914             	3.00633939e+02
915             	3.00633939e+02
916             	3.00633939e+02
917             	3.00633939e+02
918             	3.00633939e+02
919             	3.00633939e+02
920             	3.00633939e+02
921             	3.00633939e+02
922             	3.00633939e+02
923             	3.00633939e+02
924             	3.00633939e+02
925             	3.00633939e+02
926             	3.00633939e+02
927             	3.00633939e+02
928             	3.00633939e+02
929             	3.00633939e+02
930             	3.00633939e+02
931             	3.00633939e+02
932             	3.00633939e+02
933             	3.00633939e+02