# Region        : cellZone component_1
# Cells         : 60
# Volume        : 9.23629780e-02
# Time          	volAverage(T)
1               	3.10264851e+02
2               	3.20153780e+02
3               	3.28249612e+02
4               	3.35427059e+02
5               	3.42404250e+02
6               	3.49316952e+02
7               	3.56134356e+02
8               	3.62892425e+02
9               	3.69658635e+02
10              	3.76403909e+02
11              	3.83141553e+02
12              	3.89898641e+02
13              	3.96593851e+02
14              	4.03153651e+02
15              	4.09479443e+02
16              	4.15646371e+02
17              	4.21669816e+02
18              	4.27519180e+02
19              	4.33190157e+02
20              	4.38722455e+02
21              	4.44242906e+02
22              	4.49782038e+02
23              	4.55085602e+02
24              	4.60233333e+02
25              	4.65395443e+02
26              	4.70505955e+02
27              	4.75489390e+02
28              	4.80361460e+02
29              	4.85084127e+02
30              	4.89631718e+02
31              	4.94046256e+02
32              	4.98356251e+02
33              	5.02565040e+02
34              	5.06705072e+02
35              	5.10779448e+02
36              	5.14800693e+02
37              	5.18775396e+02
38              	5.22642840e+02
39              	5.26392856e+02
40              	5.29980420e+02
41              	5.33435664e+02
42              	5.36906736e+02
43              	5.40424794e+02
44              	5.44041787e+02
45              	5.47903926e+02
46              	5.51572681e+02
47              	5.55001729e+02
48              	5.58346403e+02
49              	5.61683982e+02
50              	5.64820886e+02
51              	5.67739899e+02
52              	5.70497389e+02
53              	5.73172490e+02
54              	5.75850489e+02
55              	5.78412247e+02
56              	5.80572583e+02
57              	5.82539402e+02
58              	5.84328149e+02
59              	5.85932257e+02
60              	5.87327530e+02
61              	5.88522249e+02
62              	5.89449099e+02
63              	5.90182721e+02
64              	5.90753623e+02
65              	5.91204318e+02
66              	5.91549027e+02
67              	5.91825476e+02
68              	5.92053003e+02
69              	5.92251534e+02
70              	5.92429157e+02
71              	5.92596658e+02
72              	5.92753578e+02
73              	5.92881808e+02
74              	5.93012742e+02
75              	5.93143079e+02
76              	5.93265805e+02
77              	5.93384831e+02
78              	5.93468107e+02
79              	5.93524132e+02
80              	5.93563382e+02
81              	5.93562925e+02
82              	5.93533030e+02
83              	5.93487827e+02
84              	5.93431388e+02
85              	5.93359111e+02
86              	5.93280954e+02
87              	5.93204481e+02
88              	5.93133545e+02
89              	5.93080537e+02
90              	5.93041918e+02
91              	5.93025870e+02
92              	5.93033308e+02
93              	5.93052641e+02
94              	5.93058692e+02
95              	5.93059096e+02
96              	5.93048256e+02
97              	5.93029298e+02
98              	5.93001740e+02
99              	5.92971879e+02
100             	5.92938315e+02
101             	5.92911371e+02
102             	5.92876102e+02
103             	5.92839328e+02
104             	5.92795007e+02
105             	5.92737370e+02
106             	5.92666583e+02
107             	5.92587771e+02
108             	5.92508778e+02
109             	5.92441801e+02
110             	5.92382602e+02
111             	5.92337636e+02
112             	5.92295282e+02
113             	5.92256420e+02
114             	5.92216326e+02
115             	5.92170903e+02
116             	5.92124379e+02
117             	5.92076917e+02
118             	5.92028282e+02
119             	5.91979085e+02
120             	5.91930871e+02
121             	5.91878477e+02
122             	5.91825409e+02
123             	5.91770287e+02
124             	5.91714152e+02
125             	5.91655679e+02
126             	5.91591196e+02
127             	5.91525636e+02
128             	5.91458473e+02
129             	5.91390437e+02
130             	5.91321071e+02
131             	5.91255321e+02
132             	5.91190911e+02
133             	5.91134023e+02
134             	5.91087521e+02
135             	5.91044602e+02
136             	5.91000091e+02
137             	5.90957664e+02
138             	5.90914890e+02
139             	5.90868688e+02
140             	5.90818403e+02
141             	5.90765568e+02
142             	5.90708084e+02
143             	5.90650608e+02
144             	5.90593586e+02
145             	5.90537771e+02
146             	5.90481519e+02
147             	5.90425861e+02
148             	5.90371501e+02
149             	5.90317033e+02
150             	5.90263801e+02
151             	5.90211613e+02
152             	5.90159879e+02
153             	5.90109842e+02
154             	5.90060781e+02
155             	5.90010762e+02
156             	5.89962361e+02
157             	5.89919004e+02
158             	5.89875178e+02
159             	5.89831671e+02
160             	5.89788355e+02
161             	5.89749921e+02
162             	5.89712871e+02
163             	5.89677897e+02
164             	5.89644248e+02
165             	5.89611126e+02
166             	5.89574474e+02
167             	5.89537000e+02
168             	5.89493521e+02
169             	5.89449466e+02
170             	5.89403664e+02
171             	5.89356061e+02
172             	5.89308042e+02
173             	5.89261025e+02
174             	5.89216107e+02
175             	5.89172286e+02
176             	5.89133533e+02
177             	5.89097343e+02
178             	5.89064046e+02
179             	5.89031803e+02
180             	5.89001524e+02
181             	5.88970991e+02
182             	5.88939233e+02
183             	5.88907903e+02
184             	5.88877693e+02
185             	5.88849875e+02
186             	5.88820121e+02
187             	5.88781977e+02
188             	5.88746412e+02
189             	5.88710290e+02
190             	5.88672171e+02
191             	5.88633002e+02
192             	5.88593941e+02
193             	5.88555158e+02
194             	5.88519385e+02
195             	5.88484795e+02
196             	5.88451939e+02
197             	5.88421005e+02
198             	5.88391514e+02
199             	5.88367380e+02
200             	5.88342938e+02
201             	5.88320002e+02
202             	5.88298384e+02
203             	5.88275609e+02
204             	5.88251340e+02
205             	5.88225648e+02
206             	5.88198220e+02
207             	5.88170180e+02
208             	5.88140340e+02
209             	5.88108760e+02
210             	5.88075899e+02
211             	5.88042659e+02
212             	5.88009882e+02
213             	5.87979521e+02
214             	5.87950264e+02
215             	5.87922783e+02
216             	5.87899323e+02
217             	5.87877592e+02
218             	5.87856662e+02
219             	5.87836841e+02
220             	5.87818061e+02
221             	5.87799219e+02
222             	5.87779673e+02
223             	5.87759221e+02
224             	5.87738048e+02
225             	5.87716611e+02
226             	5.87694490e+02
227             	5.87672365e+02
228             	5.87650489e+02
229             	5.87628881e+02
230             	5.87607542e+02
231             	5.87585801e+02
232             	5.87564300e+02
233             	5.87542423e+02
234             	5.87520297e+02
235             	5.87497699e+02
236             	5.87475069e+02
237             	5.87452611e+02
238             	5.87430631e+02
239             	5.87409334e+02
240             	5.87388785e+02
241             	5.87368923e+02
242             	5.87349599e+02
243             	5.87330630e+02
244             	5.87311821e+02
245             	5.87293117e+02
246             	5.87274153e+02
247             	5.87255410e+02
248             	5.87236676e+02
249             	5.87218688e+02
250             	5.87200500e+02
251             	5.87182598e+02
252             	5.87165022e+02
253             	5.87147842e+02
254             	5.87130682e+02
255             	5.87113828e+02
256             	5.87097543e+02
257             	5.87081316e+02
258             	5.87065438e+02
259             	5.87049716e+02
260             	5.87033976e+02
261             	5.87016263e+02
262             	5.86998721e+02
263             	5.86980659e+02
264             	5.86962066e+02
265             	5.86943701e+02
266             	5.86925217e+02
267             	5.86906968e+02
268             	5.86889127e+02
269             	5.86871876e+02
270             	5.86855550e+02
271             	5.86840066e+02
272             	5.86825045e+02
273             	5.86809644e+02
274             	5.86794663e+02
275             	5.86779786e+02
276             	5.86764871e+02
277             	5.86749813e+02
278             	5.86734682e+02
279             	5.86719546e+02
280             	5.86704464e+02
281             	5.86689470e+02
282             	5.86674597e+02
283             	5.86659882e+02
284             	5.86645317e+02
285             	5.86631892e+02
286             	5.86618647e+02
287             	5.86605970e+02
288             	5.86594021e+02
289             	5.86582645e+02
290             	5.86571867e+02
291             	5.86561584e+02
292             	5.86551573e+02
293             	5.86541161e+02
294             	5.86530314e+02
295             	5.86519077e+02
296             	5.86507486e+02
297             	5.86496018e+02
298             	5.86484368e+02
299             	5.86472925e+02
300             	5.86461820e+02
301             	5.86451529e+02
302             	5.86441467e+02
303             	5.86431567e+02
304             	5.86422081e+02
305             	5.86412768e+02
306             	5.86403607e+02
307             	5.86394565e+02
308             	5.86385726e+02
309             	5.86376715e+02
310             	5.86367927e+02
311             	5.86359142e+02
312             	5.86350319e+02
313             	5.86341373e+02
314             	5.86332343e+02
315             	5.86323147e+02
316             	5.86313804e+02
317             	5.86304447e+02
318             	5.86295157e+02
319             	5.86286880e+02
320             	5.86278699e+02
321             	5.86271969e+02
322             	5.86265671e+02
323             	5.86260052e+02
324             	5.86254913e+02
325             	5.86249305e+02
326             	5.86242884e+02
327             	5.86235887e+02
328             	5.86228654e+02
329             	5.86221156e+02
330             	5.86213750e+02
331             	5.86206060e+02
332             	5.86198444e+02
333             	5.86191405e+02
334             	5.86184375e+02
335             	5.86176975e+02
336             	5.86170007e+02
337             	5.86163439e+02
338             	5.86156792e+02
339             	5.86150270e+02
340             	5.86144773e+02
341             	5.86140149e+02
342             	5.86135686e+02
343             	5.86131759e+02
344             	5.86127639e+02
345             	5.86123445e+02
346             	5.86119646e+02
347             	5.86115714e+02
348             	5.86111833e+02
349             	5.86108114e+02
350             	5.86104668e+02
351             	5.86101407e+02
352             	5.86097416e+02
353             	5.86093392e+02
354             	5.86088871e+02
355             	5.86083851e+02
356             	5.86078550e+02
357             	5.86073170e+02
358             	5.86067876e+02
359             	5.86062665e+02
360             	5.86057986e+02
361             	5.86054170e+02
362             	5.86051208e+02
363             	5.86048826e+02
364             	5.86047160e+02
365             	5.86045950e+02
366             	5.86044898e+02
367             	5.86043854e+02
368             	5.86042804e+02
369             	5.86041494e+02
370             	5.86039988e+02
371             	5.86038014e+02
372             	5.86036049e+02
373             	5.86033955e+02
374             	5.86031768e+02
375             	5.86029547e+02
376             	5.86027349e+02
377             	5.86024822e+02
378             	5.86022369e+02
379             	5.86019816e+02
380             	5.86017301e+02
381             	5.86015837e+02
382             	5.86015314e+02
383             	5.86015500e+02
384             	5.86016641e+02
385             	5.86018496e+02
386             	5.86020389e+02
387             	5.86021872e+02
388             	5.86023055e+02
389             	5.86023395e+02
390             	5.86023069e+02
391             	5.86022330e+02
392             	5.86020967e+02
393             	5.86020044e+02
394             	5.86018935e+02
395             	5.86018149e+02
396             	5.86017924e+02
397             	5.86017952e+02
398             	5.86018444e+02
399             	5.86019018e+02
400             	5.86019868e+02
401             	5.86020816e+02
402             	5.86021760e+02
403             	5.86022815e+02
404             	5.86023940e+02
405             	5.86025090e+02
406             	5.86026109e+02
407             	5.86027022e+02
408             	5.86027856e+02
409             	5.86028486e+02
410             	5.86029231e+02
411             	5.86030098e+02
412             	5.86031218e+02
413             	5.86032683e+02
414             	5.86034352e+02
415             	5.86036316e+02
416             	5.86038673e+02
417             	5.86041463e+02
418             	5.86044407e+02
419             	5.86047526e+02
420             	5.86050746e+02
421             	5.86053960e+02
422             	5.86057089e+02
423             	5.86060061e+02
424             	5.86062865e+02
425             	5.86065115e+02
426             	5.86067310e+02
427             	5.86069403e+02
428             	5.86071542e+02
429             	5.86073926e+02
430             	5.86076523e+02
431             	5.86079360e+02
432             	5.86082547e+02
433             	5.86086111e+02
434             	5.86090012e+02
435             	5.86094126e+02
436             	5.86098190e+02
437             	5.86102337e+02
438             	5.86106311e+02
439             	5.86110124e+02
440             	5.86113723e+02
441             	5.86117113e+02
442             	5.86120369e+02
443             	5.86123559e+02
444             	5.86126824e+02
445             	5.86130348e+02
446             	5.86134077e+02
447             	5.86137992e+02
448             	5.86142060e+02
449             	5.86146480e+02
450             	5.86150997e+02
451             	5.86155655e+02
452             	5.86160521e+02
453             	5.86165503e+02
454             	5.86170747e+02
455             	5.86176139e+02
456             	5.86181628e+02
457             	5.86187037e+02
458             	5.86192331e+02
459             	5.86197492e+02
460             	5.86202426e+02
461             	5.86207201e+02
462             	5.86211844e+02
463             	5.86216420e+02
464             	5.86221037e+02
465             	5.86225657e+02
466             	5.86230461e+02
467             	5.86235363e+02
468             	5.86240402e+02
469             	5.86245672e+02
470             	5.86250937e+02
471             	5.86256282e+02
472             	5.86261774e+02
473             	5.86267389e+02
474             	5.86272965e+02
475             	5.86278512e+02
476             	5.86284196e+02
477             	5.86289762e+02
478             	5.86295315e+02
479             	5.86300745e+02
480             	5.86306082e+02
481             	5.86311411e+02
482             	5.86316663e+02
483             	5.86321913e+02
484             	5.86327243e+02
485             	5.86332682e+02
486             	5.86338220e+02
487             	5.86343866e+02
488             	5.86349620e+02
489             	5.86355571e+02
490             	5.86361584e+02
491             	5.86367657e+02
492             	5.86373772e+02
493             	5.86379984e+02
494             	5.86386230e+02
495             	5.86392536e+02
496             	5.86398937e+02
497             	5.86405400e+02
498             	5.86412020e+02
499             	5.86418793e+02
500             	5.86425720e+02
501             	5.86432712e+02
502             	5.86439819e+02
503             	5.86447027e+02
504             	5.86454296e+02
505             	5.86461659e+02
506             	5.86469176e+02
507             	5.86476716e+02
508             	5.86484320e+02
509             	5.86491909e+02
510             	5.86499556e+02
511             	5.86507199e+02
512             	5.86514832e+02
513             	5.86522114e+02
514             	5.86529420e+02
515             	5.86536688e+02
516             	5.86543965e+02
517             	5.86551332e+02
518             	5.86558804e+02
519             	5.86566413e+02
520             	5.86574128e+02
521             	5.86582202e+02
522             	5.86590350e+02
523             	5.86598627e+02
524             	5.86607075e+02
525             	5.86615527e+02
526             	5.86623961e+02
527             	5.86632353e+02
528             	5.86640746e+02
529             	5.86649057e+02
530             	5.86657379e+02
531             	5.86665713e+02
532             	5.86674036e+02
533             	5.86682371e+02
534             	5.86690714e+02
535             	5.86699053e+02
536             	5.86707422e+02
537             	5.86715753e+02
538             	5.86724104e+02
539             	5.86732412e+02
540             	5.86740818e+02
541             	5.86749306e+02
542             	5.86757898e+02
543             	5.86766594e+02
544             	5.86775411e+02
545             	5.86784344e+02
546             	5.86793410e+02
547             	5.86802670e+02
548             	5.86812016e+02
549             	5.86821437e+02
550             	5.86830925e+02
551             	5.86840484e+02
552             	5.86850113e+02
553             	5.86859773e+02
554             	5.86869482e+02
555             	5.86879231e+02
556             	5.86889048e+02
557             	5.86898915e+02
558             	5.86908863e+02
559             	5.86918858e+02
560             	5.86928900e+02
561             	5.86938982e+02
562             	5.86949101e+02
563             	5.86959239e+02
564             	5.86969398e+02
565             	5.86979552e+02
566             	5.86989725e+02
567             	5.86999897e+02
568             	5.87010104e+02
569             	5.87020353e+02
570             	5.87030690e+02
571             	5.87041094e+02
572             	5.87051601e+02
573             	5.87062207e+02
574             	5.87072919e+02
575             	5.87083734e+02
576             	5.87094667e+02
577             	5.87105693e+02
578             	5.87116832e+02
579             	5.87128052e+02
580             	5.87139337e+02
581             	5.87150661e+02
582             	5.87161661e+02
583             	5.87172482e+02
584             	5.87183190e+02
585             	5.87193806e+02
586             	5.87204394e+02
587             	5.87214987e+02
588             	5.87225615e+02
589             	5.87236308e+02
590             	5.87247082e+02
591             	5.87257901e+02
592             	5.87268732e+02
593             	5.87279548e+02
594             	5.87290332e+02
595             	5.87301052e+02
596             	5.87311682e+02
597             	5.87322191e+02
598             	5.87332607e+02
599             	5.87342922e+02
600             	5.87353234e+02
601             	5.87363545e+02
602             	5.87373901e+02
603             	5.87384315e+02
604             	5.87394796e+02
605             	5.87405316e+02
606             	5.87415853e+02
607             	5.87426401e+02
608             	5.87436925e+02
609             	5.87447418e+02
610             	5.87457890e+02
611             	5.87468345e+02
612             	5.87478819e+02
613             	5.87489376e+02
614             	5.87499987e+02
615             	5.87510669e+02
616             	5.87521427e+02
617             	5.87532229e+02
618             	5.87543066e+02
619             	5.87553903e+02
620             	5.87564749e+02
621             	5.87575556e+02
622             	5.87586343e+02
623             	5.87597113e+02
624             	5.87607912e+02
625             	5.87618738e+02
626             	5.87629611e+02
627             	5.87640547e+02
628             	5.87651580e+02
629             	5.87662692e+02
630             	5.87673867e+02
631             	5.87685106e+02
632             	5.87696426e+02
633             	5.87707768e+02
634             	5.87719117e+02
635             	5.87730405e+02
636             	5.87741663e+02
637             	5.87752756e+02
638             	5.87763857e+02
639             	5.87774976e+02
640             	5.87786137e+02
641             	5.87797338e+02
642             	5.87808612e+02
643             	5.87819979e+02
644             	5.87831465e+02
645             	5.87843091e+02
646             	5.87854796e+02
647             	5.87866588e+02
648             	5.87878477e+02
649             	5.87890425e+02
650             	5.87902440e+02
651             	5.87914508e+02
652             	5.87926627e+02
653             	5.87938761e+02
654             	5.87950771e+02
655             	5.87962631e+02
656             	5.87974471e+02
657             	5.87986262e+02
658             	5.87998048e+02
659             	5.88009856e+02
660             	5.88021720e+02
661             	5.88033678e+02
662             	5.88045709e+02
663             	5.88057840e+02
664             	5.88070104e+02
665             	5.88082523e+02
666             	5.88095020e+02
667             	5.88107597e+02
668             	5.88120241e+02
669             	5.88132898e+02
670             	5.88145542e+02
671             	5.88158157e+02
672             	5.88170768e+02
673             	5.88183306e+02
674             	5.88195851e+02
675             	5.88208400e+02
676             	5.88220958e+02
677             	5.88233540e+02
678             	5.88246134e+02
679             	5.88258765e+02
680             	5.88271471e+02
681             	5.88284228e+02
682             	5.88297058e+02
683             	5.88309966e+02
684             	5.88322963e+02
685             	5.88336005e+02
686             	5.88349037e+02
687             	5.88362055e+02
688             	5.88375072e+02
689             	5.88387994e+02
690             	5.88400902e+02
691             	5.88413784e+02
692             	5.88426613e+02
693             	5.88439379e+02
694             	5.88452079e+02
695             	5.88464758e+02
696             	5.88477460e+02
697             	5.88490184e+02
698             	5.88502952e+02
699             	5.88515797e+02
700             	5.88528742e+02
701             	5.88541741e+02
702             	5.88554785e+02
703             	5.88567865e+02
704             	5.88580958e+02
705             	5.88593987e+02
706             	5.88606961e+02
707             	5.88619878e+02
708             	5.88632717e+02
709             	5.88645483e+02
710             	5.88658159e+02
711             	5.88670806e+02
712             	5.88683488e+02
713             	5.88696256e+02
714             	5.88709138e+02
715             	5.88722215e+02
716             	5.88735440e+02
717             	5.88748729e+02
718             	5.88762011e+02
719             	5.88775184e+02
720             	5.88788297e+02
721             	5.88801284e+02
722             	5.88814086e+02
723             	5.88826724e+02
724             	5.88839270e+02
725             	5.88851836e+02
726             	5.88864491e+02
727             	5.88877301e+02
728             	5.88890290e+02
729             	5.88903441e+02
730             	5.88916666e+02
731             	5.88929924e+02
732             	5.88943173e+02
733             	5.88956385e+02
734             	5.88969523e+02
735             	5.88982610e+02
736             	5.88995637e+02
737             	5.89008693e+02
738             	5.89021782e+02
739             	5.89034916e+02
740             	5.89048074e+02
741             	5.89061549e+02
742             	5.89074981e+02
743             	5.89088508e+02
744             	5.89102152e+02
745             	5.89115892e+02
746             	5.89129714e+02
747             	5.89143599e+02
748             	5.89157485e+02
749             	5.89171351e+02
750             	5.89185226e+02
751             	5.89199043e+02
752             	5.89212775e+02
753             	5.89226427e+02
754             	5.89239994e+02
755             	5.89253523e+02
756             	5.89266988e+02
757             	5.89280375e+02
758             	5.89293675e+02
759             	5.89306902e+02
760             	5.89320023e+02
761             	5.89333074e+02
762             	5.89345929e+02
763             	5.89358739e+02
764             	5.89371551e+02
765             	5.89384363e+02
766             	5.89397244e+02
767             	5.89410044e+02
768             	5.89422769e+02
769             	5.89435421e+02
770             	5.89447933e+02
771             	5.89460257e+02
772             	5.89472449e+02
773             	5.89484520e+02
774             	5.89496472e+02
775             	5.89508371e+02
776             	5.89520207e+02
777             	5.89532022e+02
778             	5.89543783e+02
779             	5.89555561e+02
780             	5.89567331e+02
781             	5.89579072e+02
782             	5.89590797e+02
783             	5.89602522e+02
784             	5.89614215e+02
785             	5.89625883e+02
786             	5.89637370e+02
787             	5.89648906e+02
788             	5.89660465e+02
789             	5.89672042e+02
790             	5.89683611e+02
791             	5.89695207e+02
792             	5.89706940e+02
793             	5.89718701e+02
794             	5.89730519e+02
795             	5.89742418e+02
796             	5.89754361e+02
797             	5.89766361e+02
798             	5.89778366e+02
799             	5.89790434e+02
800             	5.89802585e+02
801             	5.89814832e+02
802             	5.89827139e+02
803             	5.89839521e+02
804             	5.89851889e+02
805             	5.89864281e+02
806             	5.89876605e+02
807             	5.89888824e+02
808             	5.89900942e+02
809             	5.89912909e+02
810             	5.89924763e+02
811             	5.89936552e+02
812             	5.89948280e+02
813             	5.89959874e+02
814             	5.89971405e+02
815             	5.89982906e+02
816             	5.89994341e+02
817             	5.90005705e+02
818             	5.90016959e+02
819             	5.90028139e+02
820             	5.90039247e+02
821             	5.90050247e+02
822             	5.90061037e+02
823             	5.90071736e+02
824             	5.90082356e+02
825             	5.90092971e+02
826             	5.90103458e+02
827             	5.90113850e+02
828             	5.90124129e+02
829             	5.90134306e+02
830             	5.90144366e+02
831             	5.90154345e+02
832             	5.90164342e+02
833             	5.90174386e+02
834             	5.90184447e+02
835             	5.90194513e+02
836             	5.90204487e+02
837             	5.90214294e+02
838             	5.90223919e+02
839             	5.90233343e+02
840             	5.90242570e+02
841             	5.90251635e+02
842             	5.90260616e+02
843             	5.90269614e+02
844             	5.90278690e+02
845             	5.90287894e+02
846             	5.90297200e+02
847             	5.90306624e+02
848             	5.90316150e+02
849             	5.90325727e+02
850             	5.90335285e+02
851             	5.90344808e+02
852             	5.90354277e+02
853             	5.90363664e+02
854             	5.90372946e+02
855             	5.90382136e+02
856             	5.90391231e+02
857             	5.90400180e+02
858             	5.90409110e+02
859             	5.90418035e+02
860             	5.90426946e+02
861             	5.90435835e+02
862             	5.90444697e+02
863             	5.90453531e+02
864             	5.90462332e+02
865             	5.90471696e+02
866             	5.90480901e+02
867             	5.90490172e+02
868             	5.90499549e+02
869             	5.90508934e+02
870             	5.90518215e+02
871             	5.90527353e+02
872             	5.90536375e+02
873             	5.90545260e+02
874             	5.90553995e+02
875             	5.90562646e+02
876             	5.90571188e+02
877             	5.90578871e+02
878             	5.90586606e+02
879             	5.90594472e+02
880             	5.90601939e+02
881             	5.90609196e+02
882             	5.90616414e+02
883             	5.90623678e+02
884             	5.90631009e+02
885             	5.90638460e+02
886             	5.90645896e+02
887             	5.90653573e+02
888             	5.90661278e+02
889             	5.90669611e+02
890             	5.90678001e+02
891             	5.90686176e+02
892             	5.90694641e+02
893             	5.90703098e+02
894             	5.90711374e+02
895             	5.90719447e+02
896             	5.90727328e+02
897             	5.90735040e+02
898             	5.90742593e+02
899             	5.90750047e+02
900             	5.90757445e+02
901             	5.90764831e+02
902             	5.90772223e+02
903             	5.90779653e+02
904             	5.90786477e+02
905             	5.90793495e+02
906             	5.90800424e+02
907             	5.90807437e+02
908             	5.90814279e+02
909             	5.90821108e+02
910             	5.90828024e+02
911             	5.90835103e+02
912             	5.90842352e+02
913             	5.90849859e+02
914             	5.90857472e+02
915             	5.90865013e+02
916             	5.90872611e+02
917             	5.90880307e+02
918             	5.90887762e+02
919             	5.90895127e+02
920             	5.90902479e+02
921             	5.90909488e+02
922             	5.90916386e+02
923             	5.90923503e+02
924             	5.90930511e+02
925             	5.90937621e+02
926             	5.90944244e+02
927             	5.90951192e+02
928             	5.90958091e+02
929             	5.90964625e+02
930             	5.90971184e+02
931             	5.90977730e+02
932             	5.90984243e+02
933             	5.90990391e+02