# Region        : cellZone component_2
# Cells         : 144
# Volume        : 2.59603313e-01
# Time          	volAverage(T)
1               	3.00329848e+02
2               	3.00653812e+02
3               	3.00933024e+02
4               	3.01180461e+02
5               	3.01416310e+02
6               	3.01646233e+02
7               	3.01870480e+02
8               	3.02086010e+02
9               	3.02293989e+02
10              	3.02496330e+02
11              	3.02692770e+02
12              	3.02887097e+02
13              	3.03076138e+02
14              	3.03256330e+02
15              	3.03427090e+02
16              	3.03583748e+02
17              	3.03729601e+02
18              	3.03864738e+02
19              	3.03986277e+02
20              	3.04102592e+02
21              	3.04212521e+02
22              	3.04328993e+02
23              	3.04440491e+02
24              	3.04545215e+02
25              	3.04644012e+02
26              	3.04740600e+02
27              	3.04837622e+02
28              	3.04932290e+02
29              	3.05027498e+02
30              	3.05120874e+02
31              	3.05212894e+02
32              	3.05302080e+02
33              	3.05389260e+02
34              	3.05474648e+02
35              	3.05551725e+02
36              	3.05629112e+02
37              	3.05704512e+02
38              	3.05779671e+02
39              	3.05863797e+02
40              	3.05936298e+02
41              	3.06005272e+02
42              	3.06061364e+02
43              	3.06113355e+02
44              	3.06150958e+02
45              	3.06166137e+02
46              	3.06190777e+02
47              	3.06257393e+02
48              	3.06316209e+02
49              	3.06361133e+02
50              	3.06398164e+02
51              	3.06432921e+02
52              	3.06462636e+02
53              	3.06488555e+02
54              	3.06512598e+02
55              	3.06534578e+02
56              	3.06557925e+02
57              	3.06582983e+02
58              	3.06609059e+02
59              	3.06635833e+02
60              	3.06661480e+02
61              	3.06686946e+02
62              	3.06712145e+02
63              	3.06737196e+02
64              	3.06761971e+02
65              	3.06787180e+02
66              	3.06814094e+02
67              	3.06841427e+02
68              	3.06868376e+02
69              	3.06894538e+02
70              	3.06919462e+02
71              	3.06943672e+02
72              	3.06967070e+02
73              	3.06992277e+02
74              	3.07020060e+02
75              	3.07045965e+02
76              	3.07069859e+02
77              	3.07091052e+02
78              	3.07109385e+02
79              	3.07126285e+02
80              	3.07142290e+02
81              	3.07158382e+02
82              	3.07173743e+02
83              	3.07203845e+02
84              	3.07245062e+02
85              	3.07289775e+02
86              	3.07330241e+02
87              	3.07367096e+02
88              	3.07401398e+02
89              	3.07430565e+02
90              	3.07461324e+02
91              	3.07500378e+02
92              	3.07546465e+02
93              	3.07597014e+02
94              	3.07607147e+02
95              	3.07572366e+02
96              	3.07534095e+02
97              	3.07514906e+02
98              	3.07529982e+02
99              	3.07549138e+02
100             	3.07560438e+02
101             	3.07564575e+02
102             	3.07570085e+02
103             	3.07581216e+02
104             	3.07596042e+02
105             	3.07611294e+02
106             	3.07625263e+02
107             	3.07642794e+02
108             	3.07667713e+02
109             	3.07697333e+02
110             	3.07728264e+02
111             	3.07757873e+02
112             	3.07786465e+02
113             	3.07815195e+02
114             	3.07843804e+02
115             	3.07873036e+02
116             	3.07904471e+02
117             	3.07935925e+02
118             	3.07970983e+02
119             	3.08008558e+02
120             	3.08045716e+02
121             	3.08083831e+02
122             	3.08120466e+02
123             	3.08155386e+02
124             	3.08185086e+02
125             	3.08210094e+02
126             	3.08229342e+02
127             	3.08245036e+02
128             	3.08256838e+02
129             	3.08265105e+02
130             	3.08271796e+02
131             	3.08275795e+02
132             	3.08278232e+02
133             	3.08276755e+02
134             	3.08272649e+02
135             	3.08265957e+02
136             	3.08257468e+02
137             	3.08249374e+02
138             	3.08241541e+02
139             	3.08233364e+02
140             	3.08223242e+02
141             	3.08210222e+02
142             	3.08195277e+02
143             	3.08179211e+02
144             	3.08162781e+02
145             	3.08146452e+02
146             	3.08130987e+02
147             	3.08115277e+02
148             	3.08098973e+02
149             	3.08083671e+02
150             	3.08068502e+02
151             	3.08056904e+02
152             	3.08047856e+02
153             	3.08038717e+02
154             	3.08030792e+02
155             	3.08024158e+02
156             	3.08018833e+02
157             	3.08013779e+02
158             	3.08009527e+02
159             	3.08004012e+02
160             	3.07997486e+02
161             	3.07990026e+02
162             	3.07981113e+02
163             	3.07972103e+02
164             	3.07963485e+02
165             	3.07954918e+02
166             	3.07945987e+02
167             	3.07939153e+02
168             	3.07935490e+02
169             	3.07934503e+02
170             	3.07935424e+02
171             	3.07937096e+02
172             	3.07938520e+02
173             	3.07939238e+02
174             	3.07940183e+02
175             	3.07940654e+02
176             	3.07939574e+02
177             	3.07936936e+02
178             	3.07933363e+02
179             	3.07929241e+02
180             	3.07924947e+02
181             	3.07921551e+02
182             	3.07919643e+02
183             	3.07919740e+02
184             	3.07921350e+02
185             	3.07924388e+02
186             	3.07927458e+02
187             	3.07931082e+02
188             	3.07935469e+02
189             	3.07939974e+02
190             	3.07944081e+02
191             	3.07947882e+02
192             	3.07951659e+02
193             	3.07954130e+02
194             	3.07958563e+02
195             	3.07965489e+02
196             	3.07974393e+02
197             	3.07984425e+02
198             	3.07995328e+02
199             	3.08006621e+02
200             	3.08018545e+02
201             	3.08030482e+02
202             	3.08041355e+02
203             	3.08049408e+02
204             	3.08056552e+02
205             	3.08062793e+02
206             	3.08067952e+02
207             	3.08071928e+02
208             	3.08075171e+02
209             	3.08078003e+02
210             	3.08080580e+02
211             	3.08084021e+02
212             	3.08087528e+02
213             	3.08090751e+02
214             	3.08093162e+02
215             	3.08094447e+02
216             	3.08094582e+02
217             	3.08093171e+02
218             	3.08091647e+02
219             	3.08086463e+02
220             	3.08084303e+02
221             	3.08083747e+02
222             	3.08083554e+02
223             	3.08083195e+02
224             	3.08083030e+02
225             	3.08083078e+02
226             	3.08083317e+02
227             	3.08083422e+02
228             	3.08083162e+02
229             	3.08082513e+02
230             	3.08082271e+02
231             	3.08083085e+02
232             	3.08084701e+02
233             	3.08087657e+02
234             	3.08091810e+02
235             	3.08096361e+02
236             	3.08100879e+02
237             	3.08105586e+02
238             	3.08110106e+02
239             	3.08114623e+02
240             	3.08119369e+02
241             	3.08123709e+02
242             	3.08127270e+02
243             	3.08131674e+02
244             	3.08136584e+02
245             	3.08141299e+02
246             	3.08145706e+02
247             	3.08150195e+02
248             	3.08153291e+02
249             	3.08156331e+02
250             	3.08159450e+02
251             	3.08162148e+02
252             	3.08164360e+02
253             	3.08165726e+02
254             	3.08168284e+02
255             	3.08170568e+02
256             	3.08172700e+02
257             	3.08174384e+02
258             	3.08175250e+02
259             	3.08174682e+02
260             	3.08176009e+02
261             	3.08176816e+02
262             	3.08178708e+02
263             	3.08182072e+02
264             	3.08185545e+02
265             	3.08187992e+02
266             	3.08191165e+02
267             	3.08194417e+02
268             	3.08197194e+02
269             	3.08198932e+02
270             	3.08200727e+02
271             	3.08202158e+02
272             	3.08204019e+02
273             	3.08207264e+02
274             	3.08213297e+02
275             	3.08219652e+02
276             	3.08228094e+02
277             	3.08237784e+02
278             	3.08248084e+02
279             	3.08257752e+02
280             	3.08264841e+02
281             	3.08270254e+02
282             	3.08273525e+02
283             	3.08274366e+02
284             	3.08275317e+02
285             	3.08277413e+02
286             	3.08279978e+02
287             	3.08281285e+02
288             	3.08281689e+02
289             	3.08281916e+02
290             	3.08282185e+02
291             	3.08282086e+02
292             	3.08281778e+02
293             	3.08281123e+02
294             	3.08281015e+02
295             	3.08278425e+02
296             	3.08278304e+02
297             	3.08279796e+02
298             	3.08281149e+02
299             	3.08282839e+02
300             	3.08284699e+02
301             	3.08286259e+02
302             	3.08287373e+02
303             	3.08288164e+02
304             	3.08289041e+02
305             	3.08290181e+02
306             	3.08291533e+02
307             	3.08293077e+02
308             	3.08295139e+02
309             	3.08297875e+02
310             	3.08301177e+02
311             	3.08303230e+02
312             	3.08305812e+02
313             	3.08307634e+02
314             	3.08308517e+02
315             	3.08309562e+02
316             	3.08311349e+02
317             	3.08313287e+02
318             	3.08314884e+02
319             	3.08315106e+02
320             	3.08314680e+02
321             	3.08314396e+02
322             	3.08314105e+02
323             	3.08313476e+02
324             	3.08312470e+02
325             	3.08311262e+02
326             	3.08310171e+02
327             	3.08309190e+02
328             	3.08308292e+02
329             	3.08307571e+02
330             	3.08307807e+02
331             	3.08308212e+02
332             	3.08308836e+02
333             	3.08309748e+02
334             	3.08311105e+02
335             	3.08313063e+02
336             	3.08315637e+02
337             	3.08318865e+02
338             	3.08322683e+02
339             	3.08326841e+02
340             	3.08331100e+02
341             	3.08335306e+02
342             	3.08339700e+02
343             	3.08344403e+02
344             	3.08348852e+02
345             	3.08353706e+02
346             	3.08359046e+02
347             	3.08364664e+02
348             	3.08369454e+02
349             	3.08373916e+02
350             	3.08378628e+02
351             	3.08383175e+02
352             	3.08387134e+02
353             	3.08390186e+02
354             	3.08392382e+02
355             	3.08393825e+02
356             	3.08394430e+02
357             	3.08393616e+02
358             	3.08392583e+02
359             	3.08391468e+02
360             	3.08390296e+02
361             	3.08388721e+02
362             	3.08387045e+02
363             	3.08385263e+02
364             	3.08383504e+02
365             	3.08381521e+02
366             	3.08379307e+02
367             	3.08377010e+02
368             	3.08374730e+02
369             	3.08372274e+02
370             	3.08369831e+02
371             	3.08367756e+02
372             	3.08365985e+02
373             	3.08364461e+02
374             	3.08363292e+02
375             	3.08362290e+02
376             	3.08362045e+02
377             	3.08362484e+02
378             	3.08363173e+02
379             	3.08364841e+02
380             	3.08366841e+02
381             	3.08369661e+02
382             	3.08373562e+02
383             	3.08378158e+02
384             	3.08382251e+02
385             	3.08385918e+02
386             	3.08390064e+02
387             	3.08393247e+02
388             	3.08396132e+02
389             	3.08398750e+02
390             	3.08401074e+02
391             	3.08403198e+02
392             	3.08404760e+02
393             	3.08405905e+02
394             	3.08406626e+02
395             	3.08407026e+02
396             	3.08407562e+02
397             	3.08407658e+02
398             	3.08407322e+02
399             	3.08406716e+02
400             	3.08406173e+02
401             	3.08405384e+02
402             	3.08403578e+02
403             	3.08401932e+02
404             	3.08400970e+02
405             	3.08400309e+02
406             	3.08399672e+02
407             	3.08398997e+02
408             	3.08398753e+02
409             	3.08398459e+02
410             	3.08398399e+02
411             	3.08398581e+02
412             	3.08399624e+02
413             	3.08401403e+02
414             	3.08403582e+02
415             	3.08406009e+02
416             	3.08408477e+02
417             	3.08411007e+02
418             	3.08413703e+02
419             	3.08416496e+02
420             	3.08419443e+02
421             	3.08422352e+02
422             	3.08424831e+02
423             	3.08427410e+02
424             	3.08429576e+02
425             	3.08431854e+02
426             	3.08434137e+02
427             	3.08435909e+02
428             	3.08437206e+02
429             	3.08438128e+02
430             	3.08438994e+02
431             	3.08439393e+02
432             	3.08439334e+02
433             	3.08439156e+02
434             	3.08438795e+02
435             	3.08438273e+02
436             	3.08437491e+02
437             	3.08436953e+02
438             	3.08436518e+02
439             	3.08436235e+02
440             	3.08436142e+02
441             	3.08436680e+02
442             	3.08436733e+02
443             	3.08437091e+02
444             	3.08438236e+02
445             	3.08439960e+02
446             	3.08441936e+02
447             	3.08443202e+02
448             	3.08444831e+02
449             	3.08446984e+02
450             	3.08449020e+02
451             	3.08450398e+02
452             	3.08451205e+02
453             	3.08451780e+02
454             	3.08452166e+02
455             	3.08452514e+02
456             	3.08453343e+02
457             	3.08453598e+02
458             	3.08453576e+02
459             	3.08453904e+02
460             	3.08454850e+02
461             	3.08455867e+02
462             	3.08456463e+02
463             	3.08456359e+02
464             	3.08455512e+02
465             	3.08454714e+02
466             	3.08453954e+02
467             	3.08452783e+02
468             	3.08451619e+02
469             	3.08450612e+02
470             	3.08450151e+02
471             	3.08449477e+02
472             	3.08448933e+02
473             	3.08448722e+02
474             	3.08448924e+02
475             	3.08449479e+02
476             	3.08450214e+02
477             	3.08451058e+02
478             	3.08451642e+02
479             	3.08452641e+02
480             	3.08454074e+02
481             	3.08455735e+02
482             	3.08457210e+02
483             	3.08458820e+02
484             	3.08460165e+02
485             	3.08461224e+02
486             	3.08461886e+02
487             	3.08462379e+02
488             	3.08462908e+02
489             	3.08463737e+02
490             	3.08464818e+02
491             	3.08465736e+02
492             	3.08466700e+02
493             	3.08467591e+02
494             	3.08468321e+02
495             	3.08468898e+02
496             	3.08469318e+02
497             	3.08469599e+02
498             	3.08469744e+02
499             	3.08469874e+02
500             	3.08470147e+02
501             	3.08470115e+02
502             	3.08469987e+02
503             	3.08469949e+02
504             	3.08470012e+02
505             	3.08470061e+02
506             	3.08470000e+02
507             	3.08469865e+02
508             	3.08469432e+02
509             	3.08469155e+02
510             	3.08469176e+02
511             	3.08469173e+02
512             	3.08468918e+02
513             	3.08468557e+02
514             	3.08468199e+02
515             	3.08467860e+02
516             	3.08467661e+02
517             	3.08467491e+02
518             	3.08467440e+02
519             	3.08467848e+02
520             	3.08468278e+02
521             	3.08468674e+02
522             	3.08469351e+02
523             	3.08470272e+02
524             	3.08471242e+02
525             	3.08471843e+02
526             	3.08472614e+02
527             	3.08473521e+02
528             	3.08474451e+02
529             	3.08475420e+02
530             	3.08476376e+02
531             	3.08477293e+02
532             	3.08478287e+02
533             	3.08479138e+02
534             	3.08480128e+02
535             	3.08481361e+02
536             	3.08482515e+02
537             	3.08483569e+02
538             	3.08484727e+02
539             	3.08485776e+02
540             	3.08486738e+02
541             	3.08487650e+02
542             	3.08488527e+02
543             	3.08489268e+02
544             	3.08489823e+02
545             	3.08490111e+02
546             	3.08490211e+02
547             	3.08490158e+02
548             	3.08489778e+02
549             	3.08489280e+02
550             	3.08488720e+02
551             	3.08488183e+02
552             	3.08487507e+02
553             	3.08486765e+02
554             	3.08486030e+02
555             	3.08485218e+02
556             	3.08484315e+02
557             	3.08483633e+02
558             	3.08482999e+02
559             	3.08482354e+02
560             	3.08482017e+02
561             	3.08481997e+02
562             	3.08481640e+02
563             	3.08481329e+02
564             	3.08481324e+02
565             	3.08481748e+02
566             	3.08482533e+02
567             	3.08483502e+02
568             	3.08484528e+02
569             	3.08485436e+02
570             	3.08486464e+02
571             	3.08487318e+02
572             	3.08488095e+02
573             	3.08488859e+02
574             	3.08489787e+02
575             	3.08490774e+02
576             	3.08491587e+02
577             	3.08492364e+02
578             	3.08493037e+02
579             	3.08493669e+02
580             	3.08494364e+02
581             	3.08495000e+02
582             	3.08495493e+02
583             	3.08495754e+02
584             	3.08495981e+02
585             	3.08496040e+02
586             	3.08495792e+02
587             	3.08495555e+02
588             	3.08495337e+02
589             	3.08494992e+02
590             	3.08494579e+02
591             	3.08494108e+02
592             	3.08493625e+02
593             	3.08493075e+02
594             	3.08492457e+02
595             	3.08492000e+02
596             	3.08491659e+02
597             	3.08491369e+02
598             	3.08491159e+02
599             	3.08490940e+02
600             	3.08490927e+02
601             	3.08491053e+02
602             	3.08491219e+02
603             	3.08491435e+02
604             	3.08491739e+02
605             	3.08492162e+02
606             	3.08492650e+02
607             	3.08493104e+02
608             	3.08493598e+02
609             	3.08494150e+02
610             	3.08494759e+02
611             	3.08495309e+02
612             	3.08495869e+02
613             	3.08496334e+02
614             	3.08496649e+02
615             	3.08496995e+02
616             	3.08497339e+02
617             	3.08497467e+02
618             	3.08497566e+02
619             	3.08497632e+02
620             	3.08497617e+02
621             	3.08497528e+02
622             	3.08497400e+02
623             	3.08497266e+02
624             	3.08497147e+02
625             	3.08497047e+02
626             	3.08496950e+02
627             	3.08496816e+02
628             	3.08496661e+02
629             	3.08496486e+02
630             	3.08496298e+02
631             	3.08496079e+02
632             	3.08495896e+02
633             	3.08495713e+02
634             	3.08495544e+02
635             	3.08495484e+02
636             	3.08495491e+02
637             	3.08495567e+02
638             	3.08495741e+02
639             	3.08496012e+02
640             	3.08496347e+02
641             	3.08496774e+02
642             	3.08497158e+02
643             	3.08497510e+02
644             	3.08497878e+02
645             	3.08498256e+02
646             	3.08498647e+02
647             	3.08499003e+02
648             	3.08499350e+02
649             	3.08499665e+02
650             	3.08499897e+02
651             	3.08500063e+02
652             	3.08500235e+02
653             	3.08500384e+02
654             	3.08500440e+02
655             	3.08500429e+02
656             	3.08500371e+02
657             	3.08500271e+02
658             	3.08500137e+02
659             	3.08499992e+02
660             	3.08499832e+02
661             	3.08499661e+02
662             	3.08499476e+02
663             	3.08499288e+02
664             	3.08499092e+02
665             	3.08498892e+02
666             	3.08498701e+02
667             	3.08498553e+02
668             	3.08498433e+02
669             	3.08498339e+02
670             	3.08498285e+02
671             	3.08498270e+02
672             	3.08498282e+02
673             	3.08498382e+02
674             	3.08498478e+02
675             	3.08498558e+02
676             	3.08498662e+02
677             	3.08498808e+02
678             	3.08498986e+02
679             	3.08499186e+02
680             	3.08499411e+02
681             	3.08499620e+02
682             	3.08499808e+02
683             	3.08499994e+02
684             	3.08500173e+02
685             	3.08500330e+02
686             	3.08500446e+02
687             	3.08500509e+02
688             	3.08500541e+02
689             	3.08500525e+02
690             	3.08500470e+02
691             	3.08500286e+02
692             	3.08500134e+02
693             	3.08499999e+02
694             	3.08499877e+02
695             	3.08499729e+02
696             	3.08499583e+02
697             	3.08499462e+02
698             	3.08499372e+02
699             	3.08499302e+02
700             	3.08499251e+02
701             	3.08499254e+02
702             	3.08499232e+02
703             	3.08499277e+02
704             	3.08499304e+02
705             	3.08499318e+02
706             	3.08499354e+02
707             	3.08499435e+02
708             	3.08499579e+02
709             	3.08499758e+02
710             	3.08499944e+02
711             	3.08500149e+02
712             	3.08500322e+02
713             	3.08500484e+02
714             	3.08500651e+02
715             	3.08500809e+02
716             	3.08500958e+02
717             	3.08501111e+02
718             	3.08501284e+02
719             	3.08501474e+02
720             	3.08501648e+02
721             	3.08501804e+02
722             	3.08501925e+02
723             	3.08502036e+02
724             	3.08502142e+02
725             	3.08502200e+02
726             	3.08502216e+02
727             	3.08502212e+02
728             	3.08502190e+02
729             	3.08502139e+02
730             	3.08502066e+02
731             	3.08501976e+02
732             	3.08501868e+02
733             	3.08501744e+02
734             	3.08501613e+02
735             	3.08501473e+02
736             	3.08501322e+02
737             	3.08501164e+02
738             	3.08501028e+02
739             	3.08500923e+02
740             	3.08500848e+02
741             	3.08500797e+02
742             	3.08500777e+02
743             	3.08500783e+02
744             	3.08500800e+02
745             	3.08500833e+02
746             	3.08500882e+02
747             	3.08500952e+02
748             	3.08501042e+02
749             	3.08501215e+02
750             	3.08501366e+02
751             	3.08501497e+02
752             	3.08501640e+02
753             	3.08501786e+02
754             	3.08501876e+02
755             	3.08501980e+02
756             	3.08502077e+02
757             	3.08502155e+02
758             	3.08502224e+02
759             	3.08502289e+02
760             	3.08502343e+02
761             	3.08502357e+02
762             	3.08502320e+02
763             	3.08502263e+02
764             	3.08502219e+02
765             	3.08502166e+02
766             	3.08502087e+02
767             	3.08501994e+02
768             	3.08501891e+02
769             	3.08501809e+02
770             	3.08501727e+02
771             	3.08501626e+02
772             	3.08501508e+02
773             	3.08501388e+02
774             	3.08501302e+02
775             	3.08501239e+02
776             	3.08501195e+02
777             	3.08501163e+02
778             	3.08501153e+02
779             	3.08501147e+02
780             	3.08501157e+02
781             	3.08501193e+02
782             	3.08501248e+02
783             	3.08501321e+02
784             	3.08501406e+02
785             	3.08501500e+02
786             	3.08501566e+02
787             	3.08501647e+02
788             	3.08501736e+02
789             	3.08501817e+02
790             	3.08501886e+02
791             	3.08501918e+02
792             	3.08501957e+02
793             	3.08501997e+02
794             	3.08502087e+02
795             	3.08502137e+02
796             	3.08502160e+02
797             	3.08502190e+02
798             	3.08502233e+02
799             	3.08502269e+02
800             	3.08502311e+02
801             	3.08502354e+02
802             	3.08502394e+02
803             	3.08502427e+02
804             	3.08502451e+02
805             	3.08502450e+02
806             	3.08502435e+02
807             	3.08502409e+02
808             	3.08502371e+02
809             	3.08502340e+02
810             	3.08502319e+02
811             	3.08502315e+02
812             	3.08502293e+02
813             	3.08502267e+02
814             	3.08502250e+02
815             	3.08502247e+02
816             	3.08502248e+02
817             	3.08502248e+02
818             	3.08502242e+02
819             	3.08502229e+02
820             	3.08502211e+02
821             	3.08502197e+02
822             	3.08502174e+02
823             	3.08502145e+02
824             	3.08502119e+02
825             	3.08502107e+02
826             	3.08502110e+02
827             	3.08502114e+02
828             	3.08502117e+02
829             	3.08502130e+02
830             	3.08502154e+02
831             	3.08502188e+02
832             	3.08502227e+02
833             	3.08502264e+02
834             	3.08502303e+02
835             	3.08502344e+02
836             	3.08502389e+02
837             	3.08502439e+02
838             	3.08502473e+02
839             	3.08502518e+02
840             	3.08502564e+02
841             	3.08502605e+02
842             	3.08502643e+02
843             	3.08502680e+02
844             	3.08502717e+02
845             	3.08502750e+02
846             	3.08502778e+02
847             	3.08502803e+02
848             	3.08502826e+02
849             	3.08502842e+02
850             	3.08502849e+02
851             	3.08502846e+02
852             	3.08502832e+02
853             	3.08502820e+02
854             	3.08502805e+02
855             	3.08502787e+02
856             	3.08502765e+02
857             	3.08502737e+02
858             	3.08502707e+02
859             	3.08502675e+02
860             	3.08502643e+02
861             	3.08502611e+02
862             	3.08502578e+02
863             	3.08502548e+02
864             	3.08502523e+02
865             	3.08502501e+02
866             	3.08502485e+02
867             	3.08502475e+02
868             	3.08502468e+02
869             	3.08502464e+02
870             	3.08502463e+02
871             	3.08502474e+02
872             	3.08502487e+02
873             	3.08502500e+02
874             	3.08502515e+02
875             	3.08502533e+02
876             	3.08502555e+02
877             	3.08502578e+02
878             	3.08502598e+02
879             	3.08502618e+02
880             	3.08502636e+02
881             	3.08502649e+02
882             	3.08502664e+02
883             	3.08502680e+02
884             	3.08502691e+02
885             	3.08502698e+02
886             	3.08502680e+02
887             	3.08502676e+02
888             	3.08502680e+02
889             	3.08502678e+02
890             	3.08502673e+02
891             	3.08502662e+02
892             	3.08502652e+02
893             	3.08502639e+02
894             	3.08502630e+02
895             	3.08502630e+02
896             	3.08502626e+02
897             	3.08502617e+02
898             	3.08502616e+02
899             	3.08502627e+02
900             	3.08502636e+02
901             	3.08502645e+02
902             	3.08502655e+02
903             	3.08502669e+02
904             	3.08502684e+02
905             	3.08502699e+02
906             	3.08502717e+02
907             	3.08502739e+02
908             	3.08502763e+02
909             	3.08502775e+02
910             	3.08502798e+02
911             	3.08502828e+02
912             	3.08502858e+02
913             	3.08502882e+02
914             	3.08502906e+02
915             	3.08502926e+02
916             	3.08502946e+02
917             	3.08502963e+02
918             	3.08502976e+02
919             	3.08502983e+02
920             	3.08502986e+02
921             	3.08502985e+02
922             	3.08502982e+02
923             	3.08502978e+02
924             	3.08502973e+02
925             	3.08502961e+02
926             	3.08502947e+02
927             	3.08502929e+02
928             	3.08502912e+02
929             	3.08502887e+02
930             	3.08502858e+02
931             	3.08502836e+02
932             	3.08502813e+02
933             	3.08502792e+02