# Region        : cellZone component_3
# Cells         : 424
# Volume        : 8.46740631e-01
# Time          	volAverage(T)
1               	3.00061194e+02
2               	3.00121895e+02
3               	3.00180259e+02
4               	3.00236799e+02
5               	3.00291962e+02
6               	3.00346144e+02
7               	3.00399414e+02
8               	3.00451991e+02
9               	3.00503926e+02
10              	3.00555252e+02
11              	3.00605899e+02
12              	3.00656014e+02
13              	3.00705265e+02
14              	3.00754134e+02
15              	3.00802218e+02
16              	3.00849257e+02
17              	3.00896043e+02
18              	3.00942435e+02
19              	3.00988809e+02
20              	3.01034988e+02
21              	3.01080790e+02
22              	3.01126261e+02
23              	3.01171243e+02
24              	3.01215150e+02
25              	3.01258262e+02
26              	3.01300190e+02
27              	3.01343142e+02
28              	3.01385596e+02
29              	3.01427272e+02
30              	3.01468657e+02
31              	3.01509545e+02
32              	3.01549271e+02
33              	3.01589194e+02
34              	3.01628846e+02
35              	3.01667246e+02
36              	3.01704277e+02
37              	3.01740365e+02
38              	3.01775717e+02
39              	3.01810017e+02
40              	3.01844266e+02
41              	3.01878310e+02
42              	3.01911927e+02
43              	3.01945402e+02
44              	3.01978590e+02
45              	3.02011609e+02
46              	3.02044407e+02
47              	3.02078072e+02
48              	3.02111242e+02
49              	3.02143748e+02
50              	3.02175168e+02
51              	3.02206587e+02
52              	3.02236962e+02
53              	3.02267975e+02
54              	3.02297114e+02
55              	3.02325700e+02
56              	3.02352166e+02
57              	3.02376037e+02
58              	3.02399602e+02
59              	3.02424292e+02
60              	3.02449127e+02
61              	3.02473563e+02
62              	3.02498066e+02
63              	3.02522369e+02
64              	3.02547765e+02
65              	3.02572551e+02
66              	3.02598506e+02
67              	3.02623966e+02
68              	3.02648346e+02
69              	3.02672877e+02
70              	3.02697850e+02
71              	3.02722068e+02
72              	3.02746819e+02
73              	3.02770984e+02
74              	3.02794327e+02
75              	3.02817645e+02
76              	3.02840759e+02
77              	3.02864387e+02
78              	3.02886128e+02
79              	3.02905394e+02
80              	3.02922057e+02
81              	3.02937057e+02
82              	3.02952049e+02
83              	3.02968725e+02
84              	3.02986559e+02
85              	3.03004871e+02
86              	3.03022744e+02
87              	3.03041346e+02
88              	3.03062094e+02
89              	3.03081846e+02
90              	3.03101417e+02
91              	3.03120768e+02
92              	3.03139925e+02
93              	3.03159829e+02
94              	3.03179199e+02
95              	3.03198346e+02
96              	3.03217131e+02
97              	3.03236322e+02
98              	3.03255029e+02
99              	3.03274339e+02
100             	3.03293849e+02
101             	3.03313252e+02
102             	3.03332324e+02
103             	3.03351363e+02
104             	3.03369257e+02
105             	3.03386709e+02
106             	3.03403611e+02
107             	3.03420838e+02
108             	3.03437404e+02
109             	3.03454444e+02
110             	3.03470691e+02
111             	3.03487042e+02
112             	3.03503060e+02
113             	3.03519003e+02
114             	3.03533798e+02
115             	3.03548254e+02
116             	3.03563266e+02
117             	3.03578258e+02
118             	3.03593499e+02
119             	3.03608067e+02
120             	3.03622271e+02
121             	3.03636951e+02
122             	3.03651899e+02
123             	3.03666626e+02
124             	3.03681206e+02
125             	3.03695669e+02
126             	3.03709973e+02
127             	3.03724394e+02
128             	3.03738813e+02
129             	3.03752973e+02
130             	3.03766996e+02
131             	3.03780630e+02
132             	3.03794368e+02
133             	3.03808257e+02
134             	3.03821937e+02
135             	3.03835400e+02
136             	3.03848369e+02
137             	3.03860886e+02
138             	3.03873282e+02
139             	3.03885665e+02
140             	3.03897890e+02
141             	3.03910014e+02
142             	3.03921909e+02
143             	3.03933516e+02
144             	3.03945140e+02
145             	3.03956581e+02
146             	3.03967902e+02
147             	3.03978975e+02
148             	3.03989898e+02
149             	3.04000543e+02
150             	3.04011169e+02
151             	3.04021679e+02
152             	3.04032197e+02
153             	3.04042705e+02
154             	3.04052990e+02
155             	3.04063110e+02
156             	3.04073036e+02
157             	3.04083132e+02
158             	3.04093128e+02
159             	3.04103133e+02
160             	3.04112866e+02
161             	3.04122669e+02
162             	3.04132362e+02
163             	3.04142015e+02
164             	3.04151687e+02
165             	3.04161219e+02
166             	3.04170626e+02
167             	3.04179945e+02
168             	3.04189160e+02
169             	3.04198290e+02
170             	3.04207660e+02
171             	3.04216746e+02
172             	3.04225723e+02
173             	3.04234605e+02
174             	3.04243461e+02
175             	3.04252064e+02
176             	3.04260607e+02
177             	3.04269064e+02
178             	3.04277221e+02
179             	3.04285196e+02
180             	3.04293091e+02
181             	3.04300854e+02
182             	3.04308382e+02
183             	3.04316090e+02
184             	3.04323702e+02
185             	3.04330936e+02
186             	3.04338178e+02
187             	3.04345372e+02
188             	3.04352545e+02
189             	3.04359708e+02
190             	3.04366867e+02
191             	3.04373879e+02
192             	3.04380984e+02
193             	3.04388028e+02
194             	3.04395054e+02
195             	3.04402029e+02
196             	3.04408966e+02
197             	3.04415863e+02
198             	3.04422713e+02
199             	3.04429448e+02
200             	3.04436408e+02
201             	3.04443215e+02
202             	3.04449719e+02
203             	3.04456019e+02
204             	3.04462386e+02
205             	3.04468400e+02
206             	3.04474326e+02
207             	3.04480135e+02
208             	3.04485877e+02
209             	3.04491537e+02
210             	3.04497358e+02
211             	3.04503192e+02
212             	3.04508878e+02
213             	3.04514797e+02
214             	3.04520760e+02
215             	3.04526543e+02
216             	3.04532317e+02
217             	3.04538069e+02
218             	3.04543757e+02
219             	3.04549340e+02
220             	3.04554784e+02
221             	3.04560347e+02
222             	3.04565689e+02
223             	3.04570895e+02
224             	3.04576244e+02
225             	3.04581451e+02
226             	3.04586555e+02
227             	3.04591545e+02
228             	3.04596456e+02
229             	3.04601262e+02
230             	3.04605826e+02
231             	3.04610508e+02
232             	3.04615210e+02
233             	3.04619935e+02
234             	3.04624638e+02
235             	3.04629363e+02
236             	3.04634029e+02
237             	3.04638776e+02
238             	3.04643548e+02
239             	3.04648001e+02
240             	3.04652788e+02
241             	3.04657659e+02
242             	3.04662214e+02
243             	3.04666563e+02
244             	3.04670738e+02
245             	3.04674796e+02
246             	3.04678842e+02
247             	3.04682733e+02
248             	3.04686724e+02
249             	3.04690773e+02
250             	3.04694946e+02
251             	3.04699082e+02
252             	3.04703183e+02
253             	3.04707197e+02
254             	3.04711152e+02
255             	3.04715076e+02
256             	3.04718950e+02
257             	3.04722756e+02
258             	3.04726374e+02
259             	3.04729986e+02
260             	3.04733575e+02
261             	3.04737154e+02
262             	3.04740531e+02
263             	3.04743821e+02
264             	3.04747084e+02
265             	3.04750329e+02
266             	3.04753537e+02
267             	3.04756691e+02
268             	3.04759896e+02
269             	3.04763035e+02
270             	3.04766290e+02
271             	3.04769574e+02
272             	3.04772861e+02
273             	3.04776131e+02
274             	3.04779374e+02
275             	3.04782618e+02
276             	3.04785836e+02
277             	3.04789162e+02
278             	3.04792484e+02
279             	3.04795656e+02
280             	3.04798751e+02
281             	3.04801747e+02
282             	3.04804667e+02
283             	3.04807504e+02
284             	3.04810205e+02
285             	3.04812878e+02
286             	3.04815525e+02
287             	3.04818136e+02
288             	3.04820775e+02
289             	3.04823437e+02
290             	3.04826198e+02
291             	3.04829091e+02
292             	3.04832032e+02
293             	3.04834983e+02
294             	3.04837928e+02
295             	3.04840850e+02
296             	3.04843710e+02
297             	3.04846564e+02
298             	3.04849388e+02
299             	3.04852156e+02
300             	3.04854850e+02
301             	3.04857434e+02
302             	3.04860000e+02
303             	3.04862533e+02
304             	3.04864999e+02
305             	3.04867346e+02
306             	3.04869663e+02
307             	3.04871900e+02
308             	3.04874088e+02
309             	3.04876271e+02
310             	3.04878482e+02
311             	3.04880734e+02
312             	3.04883032e+02
313             	3.04885366e+02
314             	3.04887648e+02
315             	3.04889939e+02
316             	3.04892181e+02
317             	3.04894350e+02
318             	3.04896456e+02
319             	3.04898460e+02
320             	3.04900387e+02
321             	3.04902213e+02
322             	3.04904040e+02
323             	3.04905875e+02
324             	3.04907791e+02
325             	3.04909732e+02
326             	3.04911793e+02
327             	3.04913886e+02
328             	3.04916093e+02
329             	3.04918310e+02
330             	3.04920540e+02
331             	3.04922718e+02
332             	3.04924837e+02
333             	3.04926940e+02
334             	3.04928917e+02
335             	3.04930871e+02
336             	3.04932819e+02
337             	3.04934708e+02
338             	3.04936579e+02
339             	3.04938445e+02
340             	3.04940196e+02
341             	3.04941873e+02
342             	3.04943518e+02
343             	3.04945056e+02
344             	3.04946494e+02
345             	3.04947883e+02
346             	3.04949275e+02
347             	3.04950672e+02
348             	3.04952097e+02
349             	3.04953563e+02
350             	3.04955039e+02
351             	3.04956525e+02
352             	3.04958017e+02
353             	3.04959489e+02
354             	3.04961011e+02
355             	3.04962503e+02
356             	3.04963982e+02
357             	3.04965449e+02
358             	3.04966895e+02
359             	3.04968358e+02
360             	3.04969794e+02
361             	3.04971246e+02
362             	3.04972733e+02
363             	3.04974260e+02
364             	3.04975810e+02
365             	3.04977366e+02
366             	3.04978926e+02
367             	3.04980500e+02
368             	3.04982053e+02
369             	3.04983569e+02
370             	3.04985056e+02
371             	3.04986482e+02
372             	3.04987856e+02
373             	3.04989199e+02
374             	3.04990504e+02
375             	3.04991785e+02
376             	3.04993059e+02
377             	3.04994333e+02
378             	3.04995592e+02
379             	3.04996790e+02
380             	3.04998035e+02
381             	3.04999260e+02
382             	3.05000444e+02
383             	3.05001575e+02
384             	3.05002742e+02
385             	3.05003885e+02
386             	3.05005016e+02
387             	3.05006152e+02
388             	3.05007235e+02
389             	3.05008382e+02
390             	3.05009495e+02
391             	3.05010626e+02
392             	3.05011734e+02
393             	3.05012860e+02
394             	3.05013933e+02
395             	3.05015028e+02
396             	3.05016119e+02
397             	3.05017174e+02
398             	3.05018250e+02
399             	3.05019320e+02
400             	3.05020358e+02
401             	3.05021431e+02
402             	3.05022510e+02
403             	3.05023562e+02
404             	3.05024654e+02
405             	3.05025749e+02
406             	3.05026846e+02
407             	3.05027910e+02
408             	3.05029007e+02
409             	3.05030092e+02
410             	3.05031159e+02
411             	3.05032196e+02
412             	3.05033208e+02
413             	3.05034201e+02
414             	3.05035165e+02
415             	3.05036108e+02
416             	3.05037004e+02
417             	3.05037913e+02
418             	3.05038766e+02
419             	3.05039591e+02
420             	3.05040412e+02
421             	3.05041266e+02
422             	3.05042078e+02
423             	3.05042896e+02
424             	3.05043754e+02
425             	3.05044608e+02
426             	3.05045423e+02
427             	3.05046237e+02
428             	3.05047041e+02
429             	3.05047855e+02
430             	3.05048605e+02
431             	3.05049367e+02
432             	3.05050156e+02
433             	3.05050939e+02
434             	3.05051672e+02
435             	3.05052419e+02
436             	3.05053192e+02
437             	3.05053965e+02
438             	3.05054705e+02
439             	3.05055484e+02
440             	3.05056267e+02
441             	3.05057006e+02
442             	3.05057764e+02
443             	3.05058553e+02
444             	3.05059337e+02
445             	3.05060066e+02
446             	3.05060800e+02
447             	3.05061508e+02
448             	3.05062207e+02
449             	3.05062895e+02
450             	3.05063585e+02
451             	3.05064292e+02
452             	3.05064951e+02
453             	3.05065635e+02
454             	3.05066272e+02
455             	3.05066911e+02
456             	3.05067566e+02
457             	3.05068213e+02
458             	3.05068851e+02
459             	3.05069455e+02
460             	3.05070053e+02
461             	3.05070673e+02
462             	3.05071287e+02
463             	3.05071877e+02
464             	3.05072455e+02
465             	3.05073014e+02
466             	3.05073575e+02
467             	3.05074162e+02
468             	3.05074714e+02
469             	3.05075267e+02
470             	3.05075812e+02
471             	3.05076358e+02
472             	3.05076926e+02
473             	3.05077494e+02
474             	3.05078058e+02
475             	3.05078618e+02
476             	3.05079175e+02
477             	3.05079730e+02
478             	3.05080284e+02
479             	3.05080807e+02
480             	3.05081327e+02
481             	3.05081849e+02
482             	3.05082392e+02
483             	3.05082901e+02
484             	3.05083402e+02
485             	3.05083908e+02
486             	3.05084424e+02
487             	3.05084903e+02
488             	3.05085373e+02
489             	3.05085839e+02
490             	3.05086320e+02
491             	3.05086769e+02
492             	3.05087216e+02
493             	3.05087684e+02
494             	3.05088119e+02
495             	3.05088555e+02
496             	3.05088983e+02
497             	3.05089407e+02
498             	3.05089826e+02
499             	3.05090246e+02
500             	3.05090656e+02
501             	3.05091063e+02
502             	3.05091468e+02
503             	3.05091865e+02
504             	3.05092262e+02
505             	3.05092653e+02
506             	3.05093042e+02
507             	3.05093425e+02
508             	3.05093806e+02
509             	3.05094186e+02
510             	3.05094568e+02
511             	3.05094948e+02
512             	3.05095329e+02
513             	3.05095708e+02
514             	3.05096088e+02
515             	3.05096466e+02
516             	3.05096839e+02
517             	3.05097213e+02
518             	3.05097586e+02
519             	3.05097953e+02
520             	3.05098318e+02
521             	3.05098678e+02
522             	3.05099036e+02
523             	3.05099389e+02
524             	3.05099742e+02
525             	3.05100089e+02
526             	3.05100435e+02
527             	3.05100776e+02
528             	3.05101110e+02
529             	3.05101439e+02
530             	3.05101766e+02
531             	3.05102091e+02
532             	3.05102408e+02
533             	3.05102722e+02
534             	3.05103029e+02
535             	3.05103335e+02
536             	3.05103640e+02
537             	3.05103941e+02
538             	3.05104244e+02
539             	3.05104543e+02
540             	3.05104843e+02
541             	3.05105140e+02
542             	3.05105435e+02
543             	3.05105730e+02
544             	3.05106023e+02
545             	3.05106315e+02
546             	3.05106605e+02
547             	3.05106893e+02
548             	3.05107179e+02
549             	3.05107463e+02
550             	3.05107742e+02
551             	3.05108018e+02
552             	3.05108289e+02
553             	3.05108555e+02
554             	3.05108816e+02
555             	3.05109071e+02
556             	3.05109325e+02
557             	3.05109576e+02
558             	3.05109823e+02
559             	3.05110069e+02
560             	3.05110314e+02
561             	3.05110561e+02
562             	3.05110809e+02
563             	3.05111056e+02
564             	3.05111309e+02
565             	3.05111564e+02
566             	3.05111820e+02
567             	3.05112075e+02
568             	3.05112331e+02
569             	3.05112588e+02
570             	3.05112841e+02
571             	3.05113088e+02
572             	3.05113334e+02
573             	3.05113575e+02
574             	3.05113812e+02
575             	3.05114042e+02
576             	3.05114271e+02
577             	3.05114498e+02
578             	3.05114722e+02
579             	3.05114942e+02
580             	3.05115162e+02
581             	3.05115382e+02
582             	3.05115599e+02
583             	3.05115812e+02
584             	3.05116022e+02
585             	3.05116232e+02
586             	3.05116438e+02
587             	3.05116639e+02
588             	3.05116838e+02
589             	3.05117037e+02
590             	3.05117234e+02
591             	3.05117428e+02
592             	3.05117621e+02
593             	3.05117812e+02
594             	3.05118003e+02
595             	3.05118193e+02
596             	3.05118381e+02
597             	3.05118571e+02
598             	3.05118761e+02
599             	3.05118951e+02
600             	3.05119137e+02
601             	3.05119325e+02
602             	3.05119512e+02
603             	3.05119697e+02
604             	3.05119879e+02
605             	3.05120062e+02
606             	3.05120244e+02
607             	3.05120423e+02
608             	3.05120600e+02
609             	3.05120777e+02
610             	3.05120953e+02
611             	3.05121126e+02
612             	3.05121295e+02
613             	3.05121463e+02
614             	3.05121631e+02
615             	3.05121796e+02
616             	3.05121957e+02
617             	3.05122120e+02
618             	3.05122281e+02
619             	3.05122442e+02
620             	3.05122601e+02
621             	3.05122761e+02
622             	3.05122922e+02
623             	3.05123080e+02
624             	3.05123234e+02
625             	3.05123388e+02
626             	3.05123540e+02
627             	3.05123690e+02
628             	3.05123837e+02
629             	3.05123983e+02
630             	3.05124128e+02
631             	3.05124270e+02
632             	3.05124410e+02
633             	3.05124550e+02
634             	3.05124690e+02
635             	3.05124828e+02
636             	3.05124963e+02
637             	3.05125099e+02
638             	3.05125234e+02
639             	3.05125369e+02
640             	3.05125502e+02
641             	3.05125635e+02
642             	3.05125769e+02
643             	3.05125901e+02
644             	3.05126032e+02
645             	3.05126164e+02
646             	3.05126297e+02
647             	3.05126428e+02
648             	3.05126558e+02
649             	3.05126687e+02
650             	3.05126816e+02
651             	3.05126943e+02
652             	3.05127066e+02
653             	3.05127188e+02
654             	3.05127310e+02
655             	3.05127429e+02
656             	3.05127544e+02
657             	3.05127660e+02
658             	3.05127774e+02
659             	3.05127887e+02
660             	3.05127998e+02
661             	3.05128109e+02
662             	3.05128219e+02
663             	3.05128328e+02
664             	3.05128435e+02
665             	3.05128542e+02
666             	3.05128649e+02
667             	3.05128755e+02
668             	3.05128859e+02
669             	3.05128964e+02
670             	3.05129068e+02
671             	3.05129172e+02
672             	3.05129274e+02
673             	3.05129376e+02
674             	3.05129477e+02
675             	3.05129578e+02
676             	3.05129677e+02
677             	3.05129775e+02
678             	3.05129874e+02
679             	3.05129971e+02
680             	3.05130066e+02
681             	3.05130162e+02
682             	3.05130257e+02
683             	3.05130352e+02
684             	3.05130445e+02
685             	3.05130539e+02
686             	3.05130634e+02
687             	3.05130727e+02
688             	3.05130818e+02
689             	3.05130910e+02
690             	3.05131000e+02
691             	3.05131089e+02
692             	3.05131175e+02
693             	3.05131261e+02
694             	3.05131346e+02
695             	3.05131430e+02
696             	3.05131512e+02
697             	3.05131595e+02
698             	3.05131676e+02
699             	3.05131757e+02
700             	3.05131837e+02
701             	3.05131917e+02
702             	3.05131996e+02
703             	3.05132075e+02
704             	3.05132152e+02
705             	3.05132229e+02
706             	3.05132306e+02
707             	3.05132382e+02
708             	3.05132457e+02
709             	3.05132532e+02
710             	3.05132607e+02
711             	3.05132682e+02
712             	3.05132754e+02
713             	3.05132827e+02
714             	3.05132900e+02
715             	3.05132972e+02
716             	3.05133042e+02
717             	3.05133113e+02
718             	3.05133184e+02
719             	3.05133253e+02
720             	3.05133321e+02
721             	3.05133390e+02
722             	3.05133458e+02
723             	3.05133526e+02
724             	3.05133593e+02
725             	3.05133660e+02
726             	3.05133728e+02
727             	3.05133795e+02
728             	3.05133861e+02
729             	3.05133927e+02
730             	3.05133992e+02
731             	3.05134056e+02
732             	3.05134119e+02
733             	3.05134182e+02
734             	3.05134244e+02
735             	3.05134306e+02
736             	3.05134366e+02
737             	3.05134426e+02
738             	3.05134486e+02
739             	3.05134545e+02
740             	3.05134603e+02
741             	3.05134661e+02
742             	3.05134719e+02
743             	3.05134776e+02
744             	3.05134831e+02
745             	3.05134886e+02
746             	3.05134941e+02
747             	3.05134994e+02
748             	3.05135046e+02
749             	3.05135098e+02
750             	3.05135150e+02
751             	3.05135201e+02
752             	3.05135252e+02
753             	3.05135302e+02
754             	3.05135353e+02
755             	3.05135403e+02
756             	3.05135452e+02
757             	3.05135502e+02
758             	3.05135552e+02
759             	3.05135601e+02
760             	3.05135650e+02
761             	3.05135699e+02
762             	3.05135748e+02
763             	3.05135797e+02
764             	3.05135844e+02
765             	3.05135892e+02
766             	3.05135939e+02
767             	3.05135986e+02
768             	3.05136032e+02
769             	3.05136078e+02
770             	3.05136124e+02
771             	3.05136169e+02
772             	3.05136213e+02
773             	3.05136257e+02
774             	3.05136301e+02
775             	3.05136345e+02
776             	3.05136388e+02
777             	3.05136430e+02
778             	3.05136473e+02
779             	3.05136514e+02
780             	3.05136555e+02
781             	3.05136595e+02
782             	3.05136635e+02
783             	3.05136674e+02
784             	3.05136712e+02
785             	3.05136751e+02
786             	3.05136789e+02
787             	3.05136828e+02
788             	3.05136865e+02
789             	3.05136904e+02
790             	3.05136943e+02
791             	3.05136981e+02
792             	3.05137019e+02
793             	3.05137056e+02
794             	3.05137094e+02
795             	3.05137131e+02
796             	3.05137167e+02
797             	3.05137203e+02
798             	3.05137239e+02
799             	3.05137275e+02
800             	3.05137310e+02
801             	3.05137345e+02
802             	3.05137381e+02
803             	3.05137416e+02
804             	3.05137451e+02
805             	3.05137487e+02
806             	3.05137522e+02
807             	3.05137557e+02
808             	3.05137590e+02
809             	3.05137623e+02
810             	3.05137655e+02
811             	3.05137687e+02
812             	3.05137717e+02
813             	3.05137748e+02
814             	3.05137779e+02
815             	3.05137809e+02
816             	3.05137840e+02
817             	3.05137870e+02
818             	3.05137901e+02
819             	3.05137932e+02
820             	3.05137962e+02
821             	3.05137992e+02
822             	3.05138021e+02
823             	3.05138050e+02
824             	3.05138078e+02
825             	3.05138105e+02
826             	3.05138132e+02
827             	3.05138159e+02
828             	3.05138185e+02
829             	3.05138211e+02
830             	3.05138237e+02
831             	3.05138263e+02
832             	3.05138289e+02
833             	3.05138316e+02
834             	3.05138343e+02
835             	3.05138370e+02
836             	3.05138397e+02
837             	3.05138423e+02
838             	3.05138450e+02
839             	3.05138477e+02
840             	3.05138503e+02
841             	3.05138529e+02
842             	3.05138554e+02
843             	3.05138580e+02
844             	3.05138605e+02
845             	3.05138629e+02
846             	3.05138654e+02
847             	3.05138678e+02
848             	3.05138702e+02
849             	3.05138725e+02
850             	3.05138749e+02
851             	3.05138772e+02
852             	3.05138795e+02
853             	3.05138818e+02
854             	3.05138841e+02
855             	3.05138863e+02
856             	3.05138884e+02
857             	3.05138906e+02
858             	3.05138927e+02
859             	3.05138949e+02
860             	3.05138969e+02
861             	3.05138990e+02
862             	3.05139011e+02
863             	3.05139032e+02
864             	3.05139052e+02
865             	3.05139072e+02
866             	3.05139093e+02
867             	3.05139113e+02
868             	3.05139134e+02
869             	3.05139154e+02
870             	3.05139175e+02
871             	3.05139195e+02
872             	3.05139216e+02
873             	3.05139237e+02
874             	3.05139258e+02
875             	3.05139279e+02
876             	3.05139300e+02
877             	3.05139320e+02
878             	3.05139341e+02
879             	3.05139362e+02
880             	3.05139381e+02
881             	3.05139401e+02
882             	3.05139420e+02
883             	3.05139439e+02
884             	3.05139456e+02
885             	3.05139473e+02
886             	3.05139490e+02
887             	3.05139506e+02
888             	3.05139522e+02
889             	3.05139538e+02
890             	3.05139554e+02
891             	3.05139569e+02
892             	3.05139585e+02
893             	3.05139601e+02
894             	3.05139617e+02
895             	3.05139633e+02
896             	3.05139648e+02
897             	3.05139664e+02
898             	3.05139680e+02
899             	3.05139695e+02
900             	3.05139711e+02
901             	3.05139726e+02
902             	3.05139741e+02
903             	3.05139756e+02
904             	3.05139771e+02
905             	3.05139787e+02
906             	3.05139802e+02
907             	3.05139818e+02
908             	3.05139833e+02
909             	3.05139849e+02
910             	3.05139865e+02
911             	3.05139880e+02
912             	3.05139896e+02
913             	3.05139910e+02
914             	3.05139925e+02
915             	3.05139939e+02
916             	3.05139953e+02
917             	3.05139966e+02
918             	3.05139979e+02
919             	3.05139992e+02
920             	3.05140004e+02
921             	3.05140016e+02
922             	3.05140029e+02
923             	3.05140041e+02
924             	3.05140052e+02
925             	3.05140064e+02
926             	3.05140076e+02
927             	3.05140088e+02
928             	3.05140100e+02
929             	3.05140112e+02
930             	3.05140124e+02
931             	3.05140135e+02
932             	3.05140146e+02
933             	3.05140157e+02