# Region        : cellZone pcb
# Cells         : 583
# Volume        : 1.15209257e+00
# Time          	volAverage(T)
1               	3.00026287e+02
2               	3.00076237e+02
3               	3.00144861e+02
4               	3.00230818e+02
5               	3.00328400e+02
6               	3.00438002e+02
7               	3.00561268e+02
8               	3.00696615e+02
9               	3.00844679e+02
10              	3.01003431e+02
11              	3.01171341e+02
12              	3.01347836e+02
13              	3.01532735e+02
14              	3.01724047e+02
15              	3.01921762e+02
16              	3.02126006e+02
17              	3.02334124e+02
18              	3.02547323e+02
19              	3.02766301e+02
20              	3.02991238e+02
21              	3.03220438e+02
22              	3.03452317e+02
23              	3.03691191e+02
24              	3.03933797e+02
25              	3.04178642e+02
26              	3.04426634e+02
27              	3.04676088e+02
28              	3.04929058e+02
29              	3.05181376e+02
30              	3.05436820e+02
31              	3.05695299e+02
32              	3.05953766e+02
33              	3.06213480e+02
34              	3.06476777e+02
35              	3.06745656e+02
36              	3.07013533e+02
37              	3.07280512e+02
38              	3.07539813e+02
39              	3.07805666e+02
40              	3.08073740e+02
41              	3.08335161e+02
42              	3.08588770e+02
43              	3.08841457e+02
44              	3.09097067e+02
45              	3.09353608e+02
46              	3.09613511e+02
47              	3.09873061e+02
48              	3.10130917e+02
49              	3.10391487e+02
50              	3.10651733e+02
51              	3.10911314e+02
52              	3.11176139e+02
53              	3.11454763e+02
54              	3.11737540e+02
55              	3.12008939e+02
56              	3.12271808e+02
57              	3.12527864e+02
58              	3.12771835e+02
59              	3.13008268e+02
60              	3.13246354e+02
61              	3.13480900e+02
62              	3.13711556e+02
63              	3.13942953e+02
64              	3.14187470e+02
65              	3.14423198e+02
66              	3.14654533e+02
67              	3.14881168e+02
68              	3.15111945e+02
69              	3.15338799e+02
70              	3.15573813e+02
71              	3.15807731e+02
72              	3.16038037e+02
73              	3.16269994e+02
74              	3.16506896e+02
75              	3.16745622e+02
76              	3.16980250e+02
77              	3.17211313e+02
78              	3.17433344e+02
79              	3.17654183e+02
80              	3.17868062e+02
81              	3.18079303e+02
82              	3.18290432e+02
83              	3.18501872e+02
84              	3.18711702e+02
85              	3.18914216e+02
86              	3.19111786e+02
87              	3.19307171e+02
88              	3.19500451e+02
89              	3.19694165e+02
90              	3.19889145e+02
91              	3.20088653e+02
92              	3.20288065e+02
93              	3.20488713e+02
94              	3.20688435e+02
95              	3.20887180e+02
96              	3.21081169e+02
97              	3.21270294e+02
98              	3.21459452e+02
99              	3.21648474e+02
100             	3.21837469e+02
101             	3.22029755e+02
102             	3.22216743e+02
103             	3.22394706e+02
104             	3.22569478e+02
105             	3.22745352e+02
106             	3.22922246e+02
107             	3.23099491e+02
108             	3.23278300e+02
109             	3.23457819e+02
110             	3.23637736e+02
111             	3.23818664e+02
112             	3.24000906e+02
113             	3.24180904e+02
114             	3.24359259e+02
115             	3.24537344e+02
116             	3.24714619e+02
117             	3.24884613e+02
118             	3.25046750e+02
119             	3.25208755e+02
120             	3.25370850e+02
121             	3.25526469e+02
122             	3.25682141e+02
123             	3.25836826e+02
124             	3.25990731e+02
125             	3.26144345e+02
126             	3.26299285e+02
127             	3.26457192e+02
128             	3.26617027e+02
129             	3.26776914e+02
130             	3.26932946e+02
131             	3.27092648e+02
132             	3.27248313e+02
133             	3.27399337e+02
134             	3.27547282e+02
135             	3.27692028e+02
136             	3.27835601e+02
137             	3.27973330e+02
138             	3.28107436e+02
139             	3.28235782e+02
140             	3.28362850e+02
141             	3.28488955e+02
142             	3.28612363e+02
143             	3.28736941e+02
144             	3.28858298e+02
145             	3.28978630e+02
146             	3.29097131e+02
147             	3.29213834e+02
148             	3.29331184e+02
149             	3.29447583e+02
150             	3.29565346e+02
151             	3.29682434e+02
152             	3.29800378e+02
153             	3.29918649e+02
154             	3.30038125e+02
155             	3.30157294e+02
156             	3.30273307e+02
157             	3.30390109e+02
158             	3.30505317e+02
159             	3.30621365e+02
160             	3.30736811e+02
161             	3.30851239e+02
162             	3.30966429e+02
163             	3.31079139e+02
164             	3.31191752e+02
165             	3.31300869e+02
166             	3.31408305e+02
167             	3.31514219e+02
168             	3.31618605e+02
169             	3.31723133e+02
170             	3.31825819e+02
171             	3.31928095e+02
172             	3.32029577e+02
173             	3.32130442e+02
174             	3.32230335e+02
175             	3.32329485e+02
176             	3.32429017e+02
177             	3.32527657e+02
178             	3.32627444e+02
179             	3.32726819e+02
180             	3.32825583e+02
181             	3.32924561e+02
182             	3.33021553e+02
183             	3.33119570e+02
184             	3.33215232e+02
185             	3.33310628e+02
186             	3.33402164e+02
187             	3.33491597e+02
188             	3.33580409e+02
189             	3.33667500e+02
190             	3.33754129e+02
191             	3.33838747e+02
192             	3.33922626e+02
193             	3.34004587e+02
194             	3.34085495e+02
195             	3.34165566e+02
196             	3.34245069e+02
197             	3.34324681e+02
198             	3.34402090e+02
199             	3.34478892e+02
200             	3.34554676e+02
201             	3.34629792e+02
202             	3.34705435e+02
203             	3.34780468e+02
204             	3.34857201e+02
205             	3.34932958e+02
206             	3.35007522e+02
207             	3.35081638e+02
208             	3.35155041e+02
209             	3.35228663e+02
210             	3.35301327e+02
211             	3.35374150e+02
212             	3.35445861e+02
213             	3.35517313e+02
214             	3.35587518e+02
215             	3.35655990e+02
216             	3.35724038e+02
217             	3.35790356e+02
218             	3.35856082e+02
219             	3.35920472e+02
220             	3.35984242e+02
221             	3.36046851e+02
222             	3.36108717e+02
223             	3.36170853e+02
224             	3.36231734e+02
225             	3.36292503e+02
226             	3.36352598e+02
227             	3.36412717e+02
228             	3.36473150e+02
229             	3.36533651e+02
230             	3.36594610e+02
231             	3.36655097e+02
232             	3.36715208e+02
233             	3.36774562e+02
234             	3.36833687e+02
235             	3.36893303e+02
236             	3.36952384e+02
237             	3.37011064e+02
238             	3.37069245e+02
239             	3.37126115e+02
240             	3.37181014e+02
241             	3.37234179e+02
242             	3.37285944e+02
243             	3.37336013e+02
244             	3.37385826e+02
245             	3.37435144e+02
246             	3.37485019e+02
247             	3.37535009e+02
248             	3.37585256e+02
249             	3.37635964e+02
250             	3.37685807e+02
251             	3.37734714e+02
252             	3.37782829e+02
253             	3.37830790e+02
254             	3.37878427e+02
255             	3.37925555e+02
256             	3.37972343e+02
257             	3.38018490e+02
258             	3.38064670e+02
259             	3.38110131e+02
260             	3.38155179e+02
261             	3.38199353e+02
262             	3.38242418e+02
263             	3.38284967e+02
264             	3.38326625e+02
265             	3.38367885e+02
266             	3.38407769e+02
267             	3.38447046e+02
268             	3.38486203e+02
269             	3.38524801e+02
270             	3.38563188e+02
271             	3.38601312e+02
272             	3.38640066e+02
273             	3.38678987e+02
274             	3.38718317e+02
275             	3.38758790e+02
276             	3.38798992e+02
277             	3.38838902e+02
278             	3.38877801e+02
279             	3.38915243e+02
280             	3.38952907e+02
281             	3.38991055e+02
282             	3.39028885e+02
283             	3.39066119e+02
284             	3.39102942e+02
285             	3.39139059e+02
286             	3.39175015e+02
287             	3.39210320e+02
288             	3.39244895e+02
289             	3.39279234e+02
290             	3.39312761e+02
291             	3.39345834e+02
292             	3.39378229e+02
293             	3.39410099e+02
294             	3.39441178e+02
295             	3.39472297e+02
296             	3.39503410e+02
297             	3.39534424e+02
298             	3.39565399e+02
299             	3.39595316e+02
300             	3.39624910e+02
301             	3.39654155e+02
302             	3.39682974e+02
303             	3.39711352e+02
304             	3.39739256e+02
305             	3.39766924e+02
306             	3.39794283e+02
307             	3.39821579e+02
308             	3.39848492e+02
309             	3.39875264e+02
310             	3.39902043e+02
311             	3.39928553e+02
312             	3.39955090e+02
313             	3.39981366e+02
314             	3.40007810e+02
315             	3.40034143e+02
316             	3.40060131e+02
317             	3.40085935e+02
318             	3.40111715e+02
319             	3.40137868e+02
320             	3.40164105e+02
321             	3.40190614e+02
322             	3.40217059e+02
323             	3.40243120e+02
324             	3.40269260e+02
325             	3.40295297e+02
326             	3.40321131e+02
327             	3.40346674e+02
328             	3.40372256e+02
329             	3.40397612e+02
330             	3.40422364e+02
331             	3.40446572e+02
332             	3.40470056e+02
333             	3.40493333e+02
334             	3.40516185e+02
335             	3.40538719e+02
336             	3.40560607e+02
337             	3.40581877e+02
338             	3.40602289e+02
339             	3.40621905e+02
340             	3.40641267e+02
341             	3.40660364e+02
342             	3.40679374e+02
343             	3.40698286e+02
344             	3.40717085e+02
345             	3.40735884e+02
346             	3.40754225e+02
347             	3.40772505e+02
348             	3.40790602e+02
349             	3.40808494e+02
350             	3.40825915e+02
351             	3.40843292e+02
352             	3.40860969e+02
353             	3.40878606e+02
354             	3.40896334e+02
355             	3.40913972e+02
356             	3.40931675e+02
357             	3.40949455e+02
358             	3.40967180e+02
359             	3.40984953e+02
360             	3.41002617e+02
361             	3.41020542e+02
362             	3.41038469e+02
363             	3.41056302e+02
364             	3.41074044e+02
365             	3.41091654e+02
366             	3.41109429e+02
367             	3.41127270e+02
368             	3.41145384e+02
369             	3.41163573e+02
370             	3.41181706e+02
371             	3.41199880e+02
372             	3.41217876e+02
373             	3.41235659e+02
374             	3.41253070e+02
375             	3.41270166e+02
376             	3.41286816e+02
377             	3.41302807e+02
378             	3.41318054e+02
379             	3.41332205e+02
380             	3.41346196e+02
381             	3.41359980e+02
382             	3.41373597e+02
383             	3.41386964e+02
384             	3.41400172e+02
385             	3.41413158e+02
386             	3.41425745e+02
387             	3.41438047e+02
388             	3.41449929e+02
389             	3.41461645e+02
390             	3.41473129e+02
391             	3.41484380e+02
392             	3.41495802e+02
393             	3.41506728e+02
394             	3.41517765e+02
395             	3.41528716e+02
396             	3.41539727e+02
397             	3.41550849e+02
398             	3.41562090e+02
399             	3.41573590e+02
400             	3.41585210e+02
401             	3.41596699e+02
402             	3.41607980e+02
403             	3.41619420e+02
404             	3.41631026e+02
405             	3.41642539e+02
406             	3.41653635e+02
407             	3.41664017e+02
408             	3.41674359e+02
409             	3.41684161e+02
410             	3.41694254e+02
411             	3.41704262e+02
412             	3.41714721e+02
413             	3.41725970e+02
414             	3.41738312e+02
415             	3.41751310e+02
416             	3.41764539e+02
417             	3.41777905e+02
418             	3.41791671e+02
419             	3.41805332e+02
420             	3.41817940e+02
421             	3.41829659e+02
422             	3.41840920e+02
423             	3.41851121e+02
424             	3.41861021e+02
425             	3.41871495e+02
426             	3.41881928e+02
427             	3.41891875e+02
428             	3.41900965e+02
429             	3.41909463e+02
430             	3.41917315e+02
431             	3.41924262e+02
432             	3.41930757e+02
433             	3.41937228e+02
434             	3.41943520e+02
435             	3.41949040e+02
436             	3.41954999e+02
437             	3.41961090e+02
438             	3.41967227e+02
439             	3.41973349e+02
440             	3.41979737e+02
441             	3.41986385e+02
442             	3.41993871e+02
443             	3.42001951e+02
444             	3.42009534e+02
445             	3.42016742e+02
446             	3.42023678e+02
447             	3.42030489e+02
448             	3.42037468e+02
449             	3.42044653e+02
450             	3.42052016e+02
451             	3.42059731e+02
452             	3.42067424e+02
453             	3.42074964e+02
454             	3.42082415e+02
455             	3.42089839e+02
456             	3.42097286e+02
457             	3.42104751e+02
458             	3.42112066e+02
459             	3.42119367e+02
460             	3.42126875e+02
461             	3.42134507e+02
462             	3.42142252e+02
463             	3.42150048e+02
464             	3.42158058e+02
465             	3.42166115e+02
466             	3.42174365e+02
467             	3.42182126e+02
468             	3.42189280e+02
469             	3.42196220e+02
470             	3.42202800e+02
471             	3.42209108e+02
472             	3.42215193e+02
473             	3.42221107e+02
474             	3.42227040e+02
475             	3.42232923e+02
476             	3.42238717e+02
477             	3.42244350e+02
478             	3.42249958e+02
479             	3.42255485e+02
480             	3.42260740e+02
481             	3.42265736e+02
482             	3.42270582e+02
483             	3.42275459e+02
484             	3.42280339e+02
485             	3.42285146e+02
486             	3.42289560e+02
487             	3.42294017e+02
488             	3.42298613e+02
489             	3.42303024e+02
490             	3.42307247e+02
491             	3.42311313e+02
492             	3.42315322e+02
493             	3.42319347e+02
494             	3.42323482e+02
495             	3.42327526e+02
496             	3.42331489e+02
497             	3.42335701e+02
498             	3.42340023e+02
499             	3.42344407e+02
500             	3.42348794e+02
501             	3.42353338e+02
502             	3.42358075e+02
503             	3.42363098e+02
504             	3.42368240e+02
505             	3.42373341e+02
506             	3.42378576e+02
507             	3.42383879e+02
508             	3.42389094e+02
509             	3.42394279e+02
510             	3.42399422e+02
511             	3.42404597e+02
512             	3.42409663e+02
513             	3.42414493e+02
514             	3.42419153e+02
515             	3.42423254e+02
516             	3.42426856e+02
517             	3.42430216e+02
518             	3.42433333e+02
519             	3.42436103e+02
520             	3.42438644e+02
521             	3.42441197e+02
522             	3.42443869e+02
523             	3.42446589e+02
524             	3.42449324e+02
525             	3.42452067e+02
526             	3.42454764e+02
527             	3.42457401e+02
528             	3.42459982e+02
529             	3.42462421e+02
530             	3.42464916e+02
531             	3.42467627e+02
532             	3.42470516e+02
533             	3.42473132e+02
534             	3.42475728e+02
535             	3.42478414e+02
536             	3.42481084e+02
537             	3.42483621e+02
538             	3.42485935e+02
539             	3.42488280e+02
540             	3.42490791e+02
541             	3.42493398e+02
542             	3.42496178e+02
543             	3.42499168e+02
544             	3.42502378e+02
545             	3.42505702e+02
546             	3.42509214e+02
547             	3.42512907e+02
548             	3.42516781e+02
549             	3.42521129e+02
550             	3.42525521e+02
551             	3.42529981e+02
552             	3.42534502e+02
553             	3.42539183e+02
554             	3.42544146e+02
555             	3.42548960e+02
556             	3.42553725e+02
557             	3.42558259e+02
558             	3.42562524e+02
559             	3.42566605e+02
560             	3.42570249e+02
561             	3.42573035e+02
562             	3.42575783e+02
563             	3.42578616e+02
564             	3.42581244e+02
565             	3.42583598e+02
566             	3.42585536e+02
567             	3.42587182e+02
568             	3.42588656e+02
569             	3.42589969e+02
570             	3.42591178e+02
571             	3.42592406e+02
572             	3.42593542e+02
573             	3.42594384e+02
574             	3.42595175e+02
575             	3.42595840e+02
576             	3.42596127e+02
577             	3.42596621e+02
578             	3.42597434e+02
579             	3.42598369e+02
580             	3.42599325e+02
581             	3.42600396e+02
582             	3.42601720e+02
583             	3.42603282e+02
584             	3.42605069e+02
585             	3.42606915e+02
586             	3.42608905e+02
587             	3.42611173e+02
588             	3.42613624e+02
589             	3.42616169e+02
590             	3.42618976e+02
591             	3.42622215e+02
592             	3.42626025e+02
593             	3.42629998e+02
594             	3.42634047e+02
595             	3.42638230e+02
596             	3.42642528e+02
597             	3.42646757e+02
598             	3.42650809e+02
599             	3.42654638e+02
600             	3.42658350e+02
601             	3.42661852e+02
602             	3.42665036e+02
603             	3.42667838e+02
604             	3.42670322e+02
605             	3.42672646e+02
606             	3.42674827e+02
607             	3.42676727e+02
608             	3.42678177e+02
609             	3.42679338e+02
610             	3.42680380e+02
611             	3.42681093e+02
612             	3.42681676e+02
613             	3.42682081e+02
614             	3.42682297e+02
615             	3.42682488e+02
616             	3.42682568e+02
617             	3.42682644e+02
618             	3.42682643e+02
619             	3.42682793e+02
620             	3.42682981e+02
621             	3.42683123e+02
622             	3.42683300e+02
623             	3.42683688e+02
624             	3.42684385e+02
625             	3.42685305e+02
626             	3.42686352e+02
627             	3.42687226e+02
628             	3.42688405e+02
629             	3.42689889e+02
630             	3.42691464e+02
631             	3.42693082e+02
632             	3.42694621e+02
633             	3.42696164e+02
634             	3.42697805e+02
635             	3.42699585e+02
636             	3.42701447e+02
637             	3.42703654e+02
638             	3.42706000e+02
639             	3.42708473e+02
640             	3.42711305e+02
641             	3.42714178e+02
642             	3.42717037e+02
643             	3.42719765e+02
644             	3.42722366e+02
645             	3.42724620e+02
646             	3.42726513e+02
647             	3.42728237e+02
648             	3.42729873e+02
649             	3.42731325e+02
650             	3.42732522e+02
651             	3.42733249e+02
652             	3.42733654e+02
653             	3.42733649e+02
654             	3.42733335e+02
655             	3.42732837e+02
656             	3.42732311e+02
657             	3.42731892e+02
658             	3.42731584e+02
659             	3.42731365e+02
660             	3.42731225e+02
661             	3.42731240e+02
662             	3.42731425e+02
663             	3.42731599e+02
664             	3.42731633e+02
665             	3.42731409e+02
666             	3.42731552e+02
667             	3.42731939e+02
668             	3.42732472e+02
669             	3.42733143e+02
670             	3.42734032e+02
671             	3.42735509e+02
672             	3.42736780e+02
673             	3.42737891e+02
674             	3.42738971e+02
675             	3.42740068e+02
676             	3.42741210e+02
677             	3.42742472e+02
678             	3.42743969e+02
679             	3.42745764e+02
680             	3.42747842e+02
681             	3.42750105e+02
682             	3.42752494e+02
683             	3.42754873e+02
684             	3.42757362e+02
685             	3.42759700e+02
686             	3.42762051e+02
687             	3.42764324e+02
688             	3.42766478e+02
689             	3.42768478e+02
690             	3.42770354e+02
691             	3.42771893e+02
692             	3.42773310e+02
693             	3.42774498e+02
694             	3.42775349e+02
695             	3.42775629e+02
696             	3.42775393e+02
697             	3.42774846e+02
698             	3.42773858e+02
699             	3.42772700e+02
700             	3.42771495e+02
701             	3.42770159e+02
702             	3.42768920e+02
703             	3.42767832e+02
704             	3.42766792e+02
705             	3.42765892e+02
706             	3.42765080e+02
707             	3.42764485e+02
708             	3.42764545e+02
709             	3.42764409e+02
710             	3.42764324e+02
711             	3.42764353e+02
712             	3.42764595e+02
713             	3.42765132e+02
714             	3.42766218e+02
715             	3.42767497e+02
716             	3.42768442e+02
717             	3.42769728e+02
718             	3.42771294e+02
719             	3.42772920e+02
720             	3.42774306e+02
721             	3.42775522e+02
722             	3.42776658e+02
723             	3.42777883e+02
724             	3.42778811e+02
725             	3.42779550e+02
726             	3.42780217e+02
727             	3.42780871e+02
728             	3.42781775e+02
729             	3.42782807e+02
730             	3.42783930e+02
731             	3.42785140e+02
732             	3.42786387e+02
733             	3.42787536e+02
734             	3.42788233e+02
735             	3.42788455e+02
736             	3.42788418e+02
737             	3.42788237e+02
738             	3.42787742e+02
739             	3.42787241e+02
740             	3.42786748e+02
741             	3.42786228e+02
742             	3.42785697e+02
743             	3.42785156e+02
744             	3.42784599e+02
745             	3.42783957e+02
746             	3.42783355e+02
747             	3.42782820e+02
748             	3.42782250e+02
749             	3.42781850e+02
750             	3.42781636e+02
751             	3.42781486e+02
752             	3.42781306e+02
753             	3.42781064e+02
754             	3.42780786e+02
755             	3.42780600e+02
756             	3.42780282e+02
757             	3.42779911e+02
758             	3.42779410e+02
759             	3.42778779e+02
760             	3.42778339e+02
761             	3.42778034e+02
762             	3.42777678e+02
763             	3.42777354e+02
764             	3.42777323e+02
765             	3.42777528e+02
766             	3.42777688e+02
767             	3.42777808e+02
768             	3.42777994e+02
769             	3.42778498e+02
770             	3.42779433e+02
771             	3.42780850e+02
772             	3.42782589e+02
773             	3.42784520e+02
774             	3.42786544e+02
775             	3.42788479e+02
776             	3.42790206e+02
777             	3.42792065e+02
778             	3.42793567e+02
779             	3.42794649e+02
780             	3.42795699e+02
781             	3.42796611e+02
782             	3.42797316e+02
783             	3.42797815e+02
784             	3.42797752e+02
785             	3.42797332e+02
786             	3.42796659e+02
787             	3.42795832e+02
788             	3.42794940e+02
789             	3.42794008e+02
790             	3.42793165e+02
791             	3.42792492e+02
792             	3.42792186e+02
793             	3.42792106e+02
794             	3.42792029e+02
795             	3.42791974e+02
796             	3.42791785e+02
797             	3.42791419e+02
798             	3.42790987e+02
799             	3.42790471e+02
800             	3.42789789e+02
801             	3.42789084e+02
802             	3.42788487e+02
803             	3.42788073e+02
804             	3.42787583e+02
805             	3.42787091e+02
806             	3.42786766e+02
807             	3.42786492e+02
808             	3.42785921e+02
809             	3.42785195e+02
810             	3.42784413e+02
811             	3.42783821e+02
812             	3.42783295e+02
813             	3.42782887e+02
814             	3.42782727e+02
815             	3.42782914e+02
816             	3.42783613e+02
817             	3.42784465e+02
818             	3.42785422e+02
819             	3.42786592e+02
820             	3.42788029e+02
821             	3.42789698e+02
822             	3.42791304e+02
823             	3.42792660e+02
824             	3.42793667e+02
825             	3.42794503e+02
826             	3.42795237e+02
827             	3.42795797e+02
828             	3.42796048e+02
829             	3.42796163e+02
830             	3.42796364e+02
831             	3.42796616e+02
832             	3.42796694e+02
833             	3.42796487e+02
834             	3.42796079e+02
835             	3.42795576e+02
836             	3.42795061e+02
837             	3.42794408e+02
838             	3.42793502e+02
839             	3.42792528e+02
840             	3.42791548e+02
841             	3.42790474e+02
842             	3.42789573e+02
843             	3.42788375e+02
844             	3.42787200e+02
845             	3.42786145e+02
846             	3.42785177e+02
847             	3.42784241e+02
848             	3.42783505e+02
849             	3.42783109e+02
850             	3.42783024e+02
851             	3.42782827e+02
852             	3.42782750e+02
853             	3.42782917e+02
854             	3.42783340e+02
855             	3.42783752e+02
856             	3.42784227e+02
857             	3.42784842e+02
858             	3.42785697e+02
859             	3.42786887e+02
860             	3.42788289e+02
861             	3.42789838e+02
862             	3.42791639e+02
863             	3.42793603e+02
864             	3.42795547e+02
865             	3.42797374e+02
866             	3.42799210e+02
867             	3.42801419e+02
868             	3.42803873e+02
869             	3.42805852e+02
870             	3.42807386e+02
871             	3.42808589e+02
872             	3.42809493e+02
873             	3.42810211e+02
874             	3.42810695e+02
875             	3.42810871e+02
876             	3.42810744e+02
877             	3.42810499e+02
878             	3.42810110e+02
879             	3.42809467e+02
880             	3.42808563e+02
881             	3.42807497e+02
882             	3.42806372e+02
883             	3.42805140e+02
884             	3.42803980e+02
885             	3.42802693e+02
886             	3.42801252e+02
887             	3.42800086e+02
888             	3.42798869e+02
889             	3.42797589e+02
890             	3.42796351e+02
891             	3.42795008e+02
892             	3.42793702e+02
893             	3.42792713e+02
894             	3.42791970e+02
895             	3.42791454e+02
896             	3.42791255e+02
897             	3.42791368e+02
898             	3.42791968e+02
899             	3.42792611e+02
900             	3.42793251e+02
901             	3.42794178e+02
902             	3.42795219e+02
903             	3.42795927e+02
904             	3.42796989e+02
905             	3.42798461e+02
906             	3.42800296e+02
907             	3.42802172e+02
908             	3.42804210e+02
909             	3.42806425e+02
910             	3.42808456e+02
911             	3.42810120e+02
912             	3.42811433e+02
913             	3.42812297e+02
914             	3.42813089e+02
915             	3.42813699e+02
916             	3.42814133e+02
917             	3.42814625e+02
918             	3.42814913e+02
919             	3.42814827e+02
920             	3.42814421e+02
921             	3.42813544e+02
922             	3.42812164e+02
923             	3.42810576e+02
924             	3.42808978e+02
925             	3.42807492e+02
926             	3.42805965e+02
927             	3.42804485e+02
928             	3.42803247e+02
929             	3.42802086e+02
930             	3.42800905e+02
931             	3.42799808e+02
932             	3.42798916e+02
933             	3.42798004e+02