# Region        : cellZone fluid
# Cells         : 8809
# Volume        : 1.68110622e+01
# Time          	volAverage(T)
1               	3.00000045e+02
2               	3.00000094e+02
3               	3.00000417e+02
4               	3.00000904e+02
5               	3.00001308e+02
6               	3.00001696e+02
7               	3.00002090e+02
8               	3.00002712e+02
9               	3.00003337e+02
10              	3.00004044e+02
11              	3.00004755e+02
12              	3.00005517e+02
13              	3.00006416e+02
14              	3.00007298e+02
15              	3.00008362e+02
16              	3.00009383e+02
17              	3.00010378e+02
18              	3.00011452e+02
19              	3.00012638e+02
20              	3.00014046e+02
21              	3.00015080e+02
22              	3.00016581e+02
23              	3.00017769e+02
24              	3.00019240e+02
25              	3.00021008e+02
26              	3.00022727e+02
27              	3.00024291e+02
28              	3.00026071e+02
29              	3.00027932e+02
30              	3.00030059e+02
31              	3.00032262e+02
32              	3.00034448e+02
33              	3.00036172e+02
34              	3.00038468e+02
35              	3.00040021e+02
36              	3.00041765e+02
37              	3.00044210e+02
38              	3.00046568e+02
39              	3.00048681e+02
40              	3.00050878e+02
41              	3.00052838e+02
42              	3.00054307e+02
43              	3.00056206e+02
44              	3.00058459e+02
45              	3.00060762e+02
46              	3.00062810e+02
47              	3.00065066e+02
48              	3.00067391e+02
49              	3.00069624e+02
50              	3.00072730e+02
51              	3.00075550e+02
52              	3.00077793e+02
53              	3.00081106e+02
54              	3.00083661e+02
55              	3.00086461e+02
56              	3.00089471e+02
57              	3.00092285e+02
58              	3.00094400e+02
59              	3.00095927e+02
60              	3.00097895e+02
61              	3.00101040e+02
62              	3.00104175e+02
63              	3.00106478e+02
64              	3.00109211e+02
65              	3.00111946e+02
66              	3.00114772e+02
67              	3.00117190e+02
68              	3.00120147e+02
69              	3.00122684e+02
70              	3.00125652e+02
71              	3.00128747e+02
72              	3.00131172e+02
73              	3.00132501e+02
74              	3.00134535e+02
75              	3.00138402e+02
76              	3.00140740e+02
77              	3.00142631e+02
78              	3.00144878e+02
79              	3.00147502e+02
80              	3.00149978e+02
81              	3.00151950e+02
82              	3.00153807e+02
83              	3.00156733e+02
84              	3.00159613e+02
85              	3.00161902e+02
86              	3.00163983e+02
87              	3.00166511e+02
88              	3.00169025e+02
89              	3.00171473e+02
90              	3.00174465e+02
91              	3.00177286e+02
92              	3.00180032e+02
93              	3.00182660e+02
94              	3.00184559e+02
95              	3.00186099e+02
96              	3.00188256e+02
97              	3.00189250e+02
98              	3.00190105e+02
99              	3.00192575e+02
100             	3.00195094e+02
101             	3.00196643e+02
102             	3.00198670e+02
103             	3.00201094e+02
104             	3.00203972e+02
105             	3.00206837e+02
106             	3.00208934e+02
107             	3.00211219e+02
108             	3.00213546e+02
109             	3.00216149e+02
110             	3.00217750e+02
111             	3.00219732e+02
112             	3.00221259e+02
113             	3.00222397e+02
114             	3.00223758e+02
115             	3.00225395e+02
116             	3.00227607e+02
117             	3.00228636e+02
118             	3.00229848e+02
119             	3.00231219e+02
120             	3.00232621e+02
121             	3.00233697e+02
122             	3.00235326e+02
123             	3.00236581e+02
124             	3.00238111e+02
125             	3.00239537e+02
126             	3.00241239e+02
127             	3.00243216e+02
128             	3.00244828e+02
129             	3.00246696e+02
130             	3.00248634e+02
131             	3.00250673e+02
132             	3.00252317e+02
133             	3.00253738e+02
134             	3.00255490e+02
135             	3.00256719e+02
136             	3.00258280e+02
137             	3.00259466e+02
138             	3.00260319e+02
139             	3.00261749e+02
140             	3.00263183e+02
141             	3.00263866e+02
142             	3.00264800e+02
143             	3.00265642e+02
144             	3.00266594e+02
145             	3.00267795e+02
146             	3.00269149e+02
147             	3.00270314e+02
148             	3.00271663e+02
149             	3.00273117e+02
150             	3.00274430e+02
151             	3.00275724e+02
152             	3.00276944e+02
153             	3.00278092e+02
154             	3.00279449e+02
155             	3.00280720e+02
156             	3.00281920e+02
157             	3.00282731e+02
158             	3.00283810e+02
159             	3.00284806e+02
160             	3.00285637e+02
161             	3.00286377e+02
162             	3.00287046e+02
163             	3.00287853e+02
164             	3.00288811e+02
165             	3.00290027e+02
166             	3.00290849e+02
167             	3.00291664e+02
168             	3.00292596e+02
169             	3.00293501e+02
170             	3.00294397e+02
171             	3.00295430e+02
172             	3.00296101e+02
173             	3.00296870e+02
174             	3.00297490e+02
175             	3.00298330e+02
176             	3.00299129e+02
177             	3.00299802e+02
178             	3.00300322e+02
179             	3.00300748e+02
180             	3.00302151e+02
181             	3.00302499e+02
182             	3.00303051e+02
183             	3.00303665e+02
184             	3.00304426e+02
185             	3.00305205e+02
186             	3.00306093e+02
187             	3.00307005e+02
188             	3.00307915e+02
189             	3.00308800e+02
190             	3.00309684e+02
191             	3.00310268e+02
192             	3.00311197e+02
193             	3.00312044e+02
194             	3.00312681e+02
195             	3.00313311e+02
196             	3.00313885e+02
197             	3.00314465e+02
198             	3.00315055e+02
199             	3.00315730e+02
200             	3.00316731e+02
201             	3.00317069e+02
202             	3.00317599e+02
203             	3.00318217e+02
204             	3.00318762e+02
205             	3.00319442e+02
206             	3.00320024e+02
207             	3.00320373e+02
208             	3.00321021e+02
209             	3.00321541e+02
210             	3.00322026e+02
211             	3.00322432e+02
212             	3.00322866e+02
213             	3.00323227e+02
214             	3.00323545e+02
215             	3.00323864e+02
216             	3.00324193e+02
217             	3.00324691e+02
218             	3.00324975e+02
219             	3.00325374e+02
220             	3.00325850e+02
221             	3.00326299e+02
222             	3.00326824e+02
223             	3.00327286e+02
224             	3.00327721e+02
225             	3.00328218e+02
226             	3.00328367e+02
227             	3.00328919e+02
228             	3.00329524e+02
229             	3.00329984e+02
230             	3.00330457e+02
231             	3.00330910e+02
232             	3.00331318e+02
233             	3.00331944e+02
234             	3.00332617e+02
235             	3.00332937e+02
236             	3.00333282e+02
237             	3.00333745e+02
238             	3.00334129e+02
239             	3.00334549e+02
240             	3.00334825e+02
241             	3.00335266e+02
242             	3.00335806e+02
243             	3.00336353e+02
244             	3.00336864e+02
245             	3.00337288e+02
246             	3.00337678e+02
247             	3.00338075e+02
248             	3.00338496e+02
249             	3.00338949e+02
250             	3.00339478e+02
251             	3.00339848e+02
252             	3.00340357e+02
253             	3.00340788e+02
254             	3.00341195e+02
255             	3.00341634e+02
256             	3.00342080e+02
257             	3.00342557e+02
258             	3.00342963e+02
259             	3.00343426e+02
260             	3.00343828e+02
261             	3.00344205e+02
262             	3.00344729e+02
263             	3.00345251e+02
264             	3.00345693e+02
265             	3.00346111e+02
266             	3.00346517e+02
267             	3.00346914e+02
268             	3.00347269e+02
269             	3.00347638e+02
270             	3.00348042e+02
271             	3.00348438e+02
272             	3.00348817e+02
273             	3.00349281e+02
274             	3.00349741e+02
275             	3.00350098e+02
276             	3.00350485e+02
277             	3.00350900e+02
278             	3.00351288e+02
279             	3.00351691e+02
280             	3.00352094e+02
281             	3.00352494e+02
282             	3.00352883e+02
283             	3.00353232e+02
284             	3.00353476e+02
285             	3.00353945e+02
286             	3.00354349e+02
287             	3.00354692e+02
288             	3.00355025e+02
289             	3.00355331e+02
290             	3.00355613e+02
291             	3.00355878e+02
292             	3.00356151e+02
293             	3.00356532e+02
294             	3.00356700e+02
295             	3.00356957e+02
296             	3.00357202e+02
297             	3.00357454e+02
298             	3.00357735e+02
299             	3.00358011e+02
300             	3.00358286e+02
301             	3.00358586e+02
302             	3.00358871e+02
303             	3.00359130e+02
304             	3.00359402e+02
305             	3.00359770e+02
306             	3.00360005e+02
307             	3.00360337e+02
308             	3.00360649e+02
309             	3.00360949e+02
310             	3.00361290e+02
311             	3.00361557e+02
312             	3.00361849e+02
313             	3.00362142e+02
314             	3.00362510e+02
315             	3.00362813e+02
316             	3.00363014e+02
317             	3.00363251e+02
318             	3.00363531e+02
319             	3.00363843e+02
320             	3.00364140e+02
321             	3.00364361e+02
322             	3.00364520e+02
323             	3.00364930e+02
324             	3.00365273e+02
325             	3.00365582e+02
326             	3.00365853e+02
327             	3.00366140e+02
328             	3.00366438e+02
329             	3.00366800e+02
330             	3.00367055e+02
331             	3.00367413e+02
332             	3.00367718e+02
333             	3.00367999e+02
334             	3.00368276e+02
335             	3.00368551e+02
336             	3.00368829e+02
337             	3.00369097e+02
338             	3.00369404e+02
339             	3.00369654e+02
340             	3.00369937e+02
341             	3.00370236e+02
342             	3.00370531e+02
343             	3.00370802e+02
344             	3.00371125e+02
345             	3.00371443e+02
346             	3.00371777e+02
347             	3.00372098e+02
348             	3.00372411e+02
349             	3.00372624e+02
350             	3.00372971e+02
351             	3.00373294e+02
352             	3.00373591e+02
353             	3.00373875e+02
354             	3.00374171e+02
355             	3.00374444e+02
356             	3.00374697e+02
357             	3.00374945e+02
358             	3.00375190e+02
359             	3.00375414e+02
360             	3.00375634e+02
361             	3.00375839e+02
362             	3.00376100e+02
363             	3.00376342e+02
364             	3.00376507e+02
365             	3.00376725e+02
366             	3.00376928e+02
367             	3.00377145e+02
368             	3.00377366e+02
369             	3.00377589e+02
370             	3.00377794e+02
371             	3.00378021e+02
372             	3.00378224e+02
373             	3.00378463e+02
374             	3.00378693e+02
375             	3.00378897e+02
376             	3.00379108e+02
377             	3.00379280e+02
378             	3.00379446e+02
379             	3.00379596e+02
380             	3.00379746e+02
381             	3.00379884e+02
382             	3.00380032e+02
383             	3.00380209e+02
384             	3.00380430e+02
385             	3.00380547e+02
386             	3.00380714e+02
387             	3.00380893e+02
388             	3.00381095e+02
389             	3.00381276e+02
390             	3.00381469e+02
391             	3.00381674e+02
392             	3.00381849e+02
393             	3.00382013e+02
394             	3.00382238e+02
395             	3.00382402e+02
396             	3.00382512e+02
397             	3.00382704e+02
398             	3.00382900e+02
399             	3.00383075e+02
400             	3.00383291e+02
401             	3.00383500e+02
402             	3.00383668e+02
403             	3.00383845e+02
404             	3.00384008e+02
405             	3.00384191e+02
406             	3.00384374e+02
407             	3.00384614e+02
408             	3.00384753e+02
409             	3.00384914e+02
410             	3.00385102e+02
411             	3.00385299e+02
412             	3.00385518e+02
413             	3.00385718e+02
414             	3.00385793e+02
415             	3.00386022e+02
416             	3.00386222e+02
417             	3.00386404e+02
418             	3.00386587e+02
419             	3.00386761e+02
420             	3.00386979e+02
421             	3.00387150e+02
422             	3.00387359e+02
423             	3.00387535e+02
424             	3.00387716e+02
425             	3.00387905e+02
426             	3.00388073e+02
427             	3.00388229e+02
428             	3.00388388e+02
429             	3.00388565e+02
430             	3.00388749e+02
431             	3.00388936e+02
432             	3.00389143e+02
433             	3.00389334e+02
434             	3.00389514e+02
435             	3.00389715e+02
436             	3.00389911e+02
437             	3.00390017e+02
438             	3.00390204e+02
439             	3.00390376e+02
440             	3.00390554e+02
441             	3.00390685e+02
442             	3.00390846e+02
443             	3.00390991e+02
444             	3.00391133e+02
445             	3.00391288e+02
446             	3.00391431e+02
447             	3.00391592e+02
448             	3.00391725e+02
449             	3.00391858e+02
450             	3.00391991e+02
451             	3.00392136e+02
452             	3.00392265e+02
453             	3.00392349e+02
454             	3.00392481e+02
455             	3.00392567e+02
456             	3.00392664e+02
457             	3.00392786e+02
458             	3.00392916e+02
459             	3.00393051e+02
460             	3.00393176e+02
461             	3.00393265e+02
462             	3.00393385e+02
463             	3.00393492e+02
464             	3.00393623e+02
465             	3.00393736e+02
466             	3.00393852e+02
467             	3.00393952e+02
468             	3.00394054e+02
469             	3.00394148e+02
470             	3.00394252e+02
471             	3.00394354e+02
472             	3.00394451e+02
473             	3.00394552e+02
474             	3.00394668e+02
475             	3.00394770e+02
476             	3.00394869e+02
477             	3.00394988e+02
478             	3.00395114e+02
479             	3.00395248e+02
480             	3.00395326e+02
481             	3.00395432e+02
482             	3.00395561e+02
483             	3.00395676e+02
484             	3.00395773e+02
485             	3.00395868e+02
486             	3.00396008e+02
487             	3.00396125e+02
488             	3.00396233e+02
489             	3.00396307e+02
490             	3.00396425e+02
491             	3.00396552e+02
492             	3.00396676e+02
493             	3.00396814e+02
494             	3.00396956e+02
495             	3.00397084e+02
496             	3.00397203e+02
497             	3.00397310e+02
498             	3.00397417e+02
499             	3.00397531e+02
500             	3.00397638e+02
501             	3.00397764e+02
502             	3.00397886e+02
503             	3.00398031e+02
504             	3.00398167e+02
505             	3.00398297e+02
506             	3.00398431e+02
507             	3.00398551e+02
508             	3.00398683e+02
509             	3.00398771e+02
510             	3.00398898e+02
511             	3.00399018e+02
512             	3.00399123e+02
513             	3.00399245e+02
514             	3.00399358e+02
515             	3.00399477e+02
516             	3.00399607e+02
517             	3.00399788e+02
518             	3.00399832e+02
519             	3.00399919e+02
520             	3.00400028e+02
521             	3.00400116e+02
522             	3.00400205e+02
523             	3.00400312e+02
524             	3.00400427e+02
525             	3.00400542e+02
526             	3.00400638e+02
527             	3.00400761e+02
528             	3.00400845e+02
529             	3.00400971e+02
530             	3.00401077e+02
531             	3.00401194e+02
532             	3.00401251e+02
533             	3.00401357e+02
534             	3.00401443e+02
535             	3.00401534e+02
536             	3.00401612e+02
537             	3.00401678e+02
538             	3.00401736e+02
539             	3.00401805e+02
540             	3.00401860e+02
541             	3.00401953e+02
542             	3.00401978e+02
543             	3.00402030e+02
544             	3.00402081e+02
545             	3.00402142e+02
546             	3.00402177e+02
547             	3.00402261e+02
548             	3.00402335e+02
549             	3.00402401e+02
550             	3.00402473e+02
551             	3.00402553e+02
552             	3.00402629e+02
553             	3.00402694e+02
554             	3.00402757e+02
555             	3.00402840e+02
556             	3.00402923e+02
557             	3.00402993e+02
558             	3.00403035e+02
559             	3.00403135e+02
560             	3.00403184e+02
561             	3.00403242e+02
562             	3.00403318e+02
563             	3.00403400e+02
564             	3.00403486e+02
565             	3.00403561e+02
566             	3.00403621e+02
567             	3.00403708e+02
568             	3.00403778e+02
569             	3.00403835e+02
570             	3.00403906e+02
571             	3.00403986e+02
572             	3.00404058e+02
573             	3.00404131e+02
574             	3.00404200e+02
575             	3.00404276e+02
576             	3.00404353e+02
577             	3.00404420e+02
578             	3.00404477e+02
579             	3.00404580e+02
580             	3.00404651e+02
581             	3.00404710e+02
582             	3.00404798e+02
583             	3.00404898e+02
584             	3.00404967e+02
585             	3.00405041e+02
586             	3.00405118e+02
587             	3.00405194e+02
588             	3.00405281e+02
589             	3.00405355e+02
590             	3.00405419e+02
591             	3.00405487e+02
592             	3.00405594e+02
593             	3.00405681e+02
594             	3.00405742e+02
595             	3.00405857e+02
596             	3.00405945e+02
597             	3.00406016e+02
598             	3.00406076e+02
599             	3.00406176e+02
600             	3.00406249e+02
601             	3.00406301e+02
602             	3.00406364e+02
603             	3.00406429e+02
604             	3.00406493e+02
605             	3.00406550e+02
606             	3.00406628e+02
607             	3.00406695e+02
608             	3.00406751e+02
609             	3.00406812e+02
610             	3.00406866e+02
611             	3.00406931e+02
612             	3.00406991e+02
613             	3.00407026e+02
614             	3.00407090e+02
615             	3.00407158e+02
616             	3.00407219e+02
617             	3.00407271e+02
618             	3.00407323e+02
619             	3.00407395e+02
620             	3.00407459e+02
621             	3.00407506e+02
622             	3.00407554e+02
623             	3.00407610e+02
624             	3.00407657e+02
625             	3.00407703e+02
626             	3.00407730e+02
627             	3.00407778e+02
628             	3.00407820e+02
629             	3.00407859e+02
630             	3.00407895e+02
631             	3.00407962e+02
632             	3.00408010e+02
633             	3.00408043e+02
634             	3.00408083e+02
635             	3.00408126e+02
636             	3.00408161e+02
637             	3.00408202e+02
638             	3.00408237e+02
639             	3.00408284e+02
640             	3.00408325e+02
641             	3.00408355e+02
642             	3.00408380e+02
643             	3.00408433e+02
644             	3.00408467e+02
645             	3.00408494e+02
646             	3.00408533e+02
647             	3.00408581e+02
648             	3.00408626e+02
649             	3.00408667e+02
650             	3.00408703e+02
651             	3.00408754e+02
652             	3.00408807e+02
653             	3.00408848e+02
654             	3.00408888e+02
655             	3.00408954e+02
656             	3.00409010e+02
657             	3.00409052e+02
658             	3.00409112e+02
659             	3.00409178e+02
660             	3.00409234e+02
661             	3.00409288e+02
662             	3.00409335e+02
663             	3.00409393e+02
664             	3.00409452e+02
665             	3.00409498e+02
666             	3.00409543e+02
667             	3.00409616e+02
668             	3.00409675e+02
669             	3.00409726e+02
670             	3.00409787e+02
671             	3.00409856e+02
672             	3.00409889e+02
673             	3.00409963e+02
674             	3.00410014e+02
675             	3.00410075e+02
676             	3.00410129e+02
677             	3.00410169e+02
678             	3.00410203e+02
679             	3.00410264e+02
680             	3.00410346e+02
681             	3.00410353e+02
682             	3.00410391e+02
683             	3.00410440e+02
684             	3.00410476e+02
685             	3.00410521e+02
686             	3.00410555e+02
687             	3.00410602e+02
688             	3.00410651e+02
689             	3.00410688e+02
690             	3.00410717e+02
691             	3.00410777e+02
692             	3.00410818e+02
693             	3.00410856e+02
694             	3.00410878e+02
695             	3.00410945e+02
696             	3.00410987e+02
697             	3.00411031e+02
698             	3.00411061e+02
699             	3.00411104e+02
700             	3.00411145e+02
701             	3.00411176e+02
702             	3.00411196e+02
703             	3.00411246e+02
704             	3.00411277e+02
705             	3.00411300e+02
706             	3.00411334e+02
707             	3.00411376e+02
708             	3.00411389e+02
709             	3.00411425e+02
710             	3.00411436e+02
711             	3.00411475e+02
712             	3.00411508e+02
713             	3.00411538e+02
714             	3.00411560e+02
715             	3.00411601e+02
716             	3.00411630e+02
717             	3.00411644e+02
718             	3.00411673e+02
719             	3.00411705e+02
720             	3.00411729e+02
721             	3.00411758e+02
722             	3.00411773e+02
723             	3.00411800e+02
724             	3.00411832e+02
725             	3.00411850e+02
726             	3.00411862e+02
727             	3.00411901e+02
728             	3.00411927e+02
729             	3.00411939e+02
730             	3.00411968e+02
731             	3.00412001e+02
732             	3.00412028e+02
733             	3.00412055e+02
734             	3.00412077e+02
735             	3.00412110e+02
736             	3.00412155e+02
737             	3.00412175e+02
738             	3.00412199e+02
739             	3.00412241e+02
740             	3.00412270e+02
741             	3.00412291e+02
742             	3.00412323e+02
743             	3.00412368e+02
744             	3.00412398e+02
745             	3.00412440e+02
746             	3.00412474e+02
747             	3.00412522e+02
748             	3.00412567e+02
749             	3.00412602e+02
750             	3.00412633e+02
751             	3.00412695e+02
752             	3.00412739e+02
753             	3.00412776e+02
754             	3.00412783e+02
755             	3.00412857e+02
756             	3.00412903e+02
757             	3.00412938e+02
758             	3.00412974e+02
759             	3.00413017e+02
760             	3.00413043e+02
761             	3.00413062e+02
762             	3.00413092e+02
763             	3.00413159e+02
764             	3.00413154e+02
765             	3.00413168e+02
766             	3.00413190e+02
767             	3.00413210e+02
768             	3.00413232e+02
769             	3.00413257e+02
770             	3.00413275e+02
771             	3.00413320e+02
772             	3.00413347e+02
773             	3.00413366e+02
774             	3.00413393e+02
775             	3.00413411e+02
776             	3.00413432e+02
777             	3.00413435e+02
778             	3.00413476e+02
779             	3.00413505e+02
780             	3.00413536e+02
781             	3.00413561e+02
782             	3.00413577e+02
783             	3.00413604e+02
784             	3.00413621e+02
785             	3.00413640e+02
786             	3.00413653e+02
787             	3.00413675e+02
788             	3.00413691e+02
789             	3.00413702e+02
790             	3.00413711e+02
791             	3.00413728e+02
792             	3.00413736e+02
793             	3.00413739e+02
794             	3.00413758e+02
795             	3.00413770e+02
796             	3.00413780e+02
797             	3.00413805e+02
798             	3.00413822e+02
799             	3.00413836e+02
800             	3.00413868e+02
801             	3.00413885e+02
802             	3.00413895e+02
803             	3.00413916e+02
804             	3.00413933e+02
805             	3.00413946e+02
806             	3.00413977e+02
807             	3.00413987e+02
808             	3.00413997e+02
809             	3.00414019e+02
810             	3.00414034e+02
811             	3.00414046e+02
812             	3.00414072e+02
813             	3.00414095e+02
814             	3.00414108e+02
815             	3.00414135e+02
816             	3.00414158e+02
817             	3.00414175e+02
818             	3.00414199e+02
819             	3.00414231e+02
820             	3.00414252e+02
821             	3.00414283e+02
822             	3.00414311e+02
823             	3.00414329e+02
824             	3.00414357e+02
825             	3.00414380e+02
826             	3.00414397e+02
827             	3.00414425e+02
828             	3.00414441e+02
829             	3.00414456e+02
830             	3.00414483e+02
831             	3.00414499e+02
832             	3.00414513e+02
833             	3.00414541e+02
834             	3.00414568e+02
835             	3.00414574e+02
836             	3.00414597e+02
837             	3.00414616e+02
838             	3.00414630e+02
839             	3.00414669e+02
840             	3.00414678e+02
841             	3.00414690e+02
842             	3.00414710e+02
843             	3.00414733e+02
844             	3.00414745e+02
845             	3.00414778e+02
846             	3.00414801e+02
847             	3.00414819e+02
848             	3.00414847e+02
849             	3.00414864e+02
850             	3.00414878e+02
851             	3.00414906e+02
852             	3.00414925e+02
853             	3.00414940e+02
854             	3.00414966e+02
855             	3.00414980e+02
856             	3.00415000e+02
857             	3.00415024e+02
858             	3.00415055e+02
859             	3.00415080e+02
860             	3.00415095e+02
861             	3.00415123e+02
862             	3.00415133e+02
863             	3.00415150e+02
864             	3.00415177e+02
865             	3.00415194e+02
866             	3.00415206e+02
867             	3.00415230e+02
868             	3.00415244e+02
869             	3.00415253e+02
870             	3.00415273e+02
871             	3.00415277e+02
872             	3.00415287e+02
873             	3.00415306e+02
874             	3.00415318e+02
875             	3.00415324e+02
876             	3.00415344e+02
877             	3.00415353e+02
878             	3.00415359e+02
879             	3.00415377e+02
880             	3.00415389e+02
881             	3.00415396e+02
882             	3.00415412e+02
883             	3.00415422e+02
884             	3.00415428e+02
885             	3.00415445e+02
886             	3.00415461e+02
887             	3.00415468e+02
888             	3.00415488e+02
889             	3.00415498e+02
890             	3.00415506e+02
891             	3.00415525e+02
892             	3.00415537e+02
893             	3.00415547e+02
894             	3.00415567e+02
895             	3.00415579e+02
896             	3.00415586e+02
897             	3.00415604e+02
898             	3.00415618e+02
899             	3.00415627e+02
900             	3.00415650e+02
901             	3.00415663e+02
902             	3.00415671e+02
903             	3.00415690e+02
904             	3.00415702e+02
905             	3.00415710e+02
906             	3.00415735e+02
907             	3.00415746e+02
908             	3.00415752e+02
909             	3.00415770e+02
910             	3.00415781e+02
911             	3.00415788e+02
912             	3.00415816e+02
913             	3.00415826e+02
914             	3.00415833e+02
915             	3.00415855e+02
916             	3.00415870e+02
917             	3.00415881e+02
918             	3.00415903e+02
919             	3.00415922e+02
920             	3.00415935e+02
921             	3.00415961e+02
922             	3.00415980e+02
923             	3.00415995e+02
924             	3.00416019e+02
925             	3.00416039e+02
926             	3.00416050e+02
927             	3.00416077e+02
928             	3.00416095e+02
929             	3.00416110e+02
930             	3.00416134e+02
931             	3.00416153e+02
932             	3.00416169e+02
933             	3.00416196e+02