# Region        : cellZone pcb
# Cells         : 697
# Volume        : 1.43530588e+00
# Time          	volAverage(T)
1               	3.00004855e+02
2               	3.00014118e+02
3               	3.00027143e+02
4               	3.00043530e+02
5               	3.00061209e+02
6               	3.00081549e+02
7               	3.00103713e+02
8               	3.00128507e+02
9               	3.00155298e+02
10              	3.00184276e+02
11              	3.00215895e+02
12              	3.00250135e+02
13              	3.00286393e+02
14              	3.00323583e+02
15              	3.00362191e+02
16              	3.00401351e+02
17              	3.00442502e+02
18              	3.00485610e+02
19              	3.00530171e+02
20              	3.00576480e+02
21              	3.00623713e+02
22              	3.00671345e+02
23              	3.00718562e+02
24              	3.00766984e+02
25              	3.00814070e+02
26              	3.00860951e+02
27              	3.00908858e+02
28              	3.00958155e+02
29              	3.01008777e+02
30              	3.01061426e+02
31              	3.01113663e+02
32              	3.01167787e+02
33              	3.01224051e+02
34              	3.01281551e+02
35              	3.01340988e+02
36              	3.01400069e+02
37              	3.01457810e+02
38              	3.01516377e+02
39              	3.01574289e+02
40              	3.01632812e+02
41              	3.01693114e+02
42              	3.01751843e+02
43              	3.01809763e+02
44              	3.01869085e+02
45              	3.01930711e+02
46              	3.01995268e+02
47              	3.02058768e+02
48              	3.02123102e+02
49              	3.02187854e+02
50              	3.02250935e+02
51              	3.02312230e+02
52              	3.02372131e+02
53              	3.02429855e+02
54              	3.02486327e+02
55              	3.02538714e+02
56              	3.02590655e+02
57              	3.02642605e+02
58              	3.02695694e+02
59              	3.02750177e+02
60              	3.02807140e+02
61              	3.02867417e+02
62              	3.02925301e+02
63              	3.02981990e+02
64              	3.03038957e+02
65              	3.03094784e+02
66              	3.03149707e+02
67              	3.03204869e+02
68              	3.03259903e+02
69              	3.03315526e+02
70              	3.03371783e+02
71              	3.03427094e+02
72              	3.03480652e+02
73              	3.03534278e+02
74              	3.03587766e+02
75              	3.03639020e+02
76              	3.03689349e+02
77              	3.03740249e+02
78              	3.03792340e+02
79              	3.03844729e+02
80              	3.03897066e+02
81              	3.03949372e+02
82              	3.04003101e+02
83              	3.04057634e+02
84              	3.04113100e+02
85              	3.04168836e+02
86              	3.04224389e+02
87              	3.04278761e+02
88              	3.04331814e+02
89              	3.04383530e+02
90              	3.04433923e+02
91              	3.04483693e+02
92              	3.04532893e+02
93              	3.04581615e+02
94              	3.04629561e+02
95              	3.04677052e+02
96              	3.04724435e+02
97              	3.04772254e+02
98              	3.04819827e+02
99              	3.04867925e+02
100             	3.04916344e+02
101             	3.04964929e+02
102             	3.05014204e+02
103             	3.05064039e+02
104             	3.05113684e+02
105             	3.05162818e+02
106             	3.05209896e+02
107             	3.05257224e+02
108             	3.05302266e+02
109             	3.05346422e+02
110             	3.05389747e+02
111             	3.05432679e+02
112             	3.05475484e+02
113             	3.05518322e+02
114             	3.05561678e+02
115             	3.05605132e+02
116             	3.05648379e+02
117             	3.05691579e+02
118             	3.05734710e+02
119             	3.05777934e+02
120             	3.05820677e+02
121             	3.05862799e+02
122             	3.05904547e+02
123             	3.05945982e+02
124             	3.05987115e+02
125             	3.06027895e+02
126             	3.06068207e+02
127             	3.06108013e+02
128             	3.06147641e+02
129             	3.06186908e+02
130             	3.06225854e+02
131             	3.06264478e+02
132             	3.06302566e+02
133             	3.06340261e+02
134             	3.06377470e+02
135             	3.06414361e+02
136             	3.06450867e+02
137             	3.06486909e+02
138             	3.06522535e+02
139             	3.06557821e+02
140             	3.06592844e+02
141             	3.06627657e+02
142             	3.06662276e+02
143             	3.06696503e+02
144             	3.06730611e+02
145             	3.06764462e+02
146             	3.06798090e+02
147             	3.06831409e+02
148             	3.06864571e+02
149             	3.06897387e+02
150             	3.06929953e+02
151             	3.06962154e+02
152             	3.06994163e+02
153             	3.07025787e+02
154             	3.07057118e+02
155             	3.07088025e+02
156             	3.07118502e+02
157             	3.07148591e+02
158             	3.07178300e+02
159             	3.07207584e+02
160             	3.07236469e+02
161             	3.07264987e+02
162             	3.07293176e+02
163             	3.07321161e+02
164             	3.07348884e+02
165             	3.07376376e+02
166             	3.07403629e+02
167             	3.07430612e+02
168             	3.07457350e+02
169             	3.07483815e+02
170             	3.07510069e+02
171             	3.07535989e+02
172             	3.07561648e+02
173             	3.07587011e+02
174             	3.07612094e+02
175             	3.07636775e+02
176             	3.07661132e+02
177             	3.07685190e+02
178             	3.07708965e+02
179             	3.07732428e+02
180             	3.07755573e+02
181             	3.07778430e+02
182             	3.07801028e+02
183             	3.07823376e+02
184             	3.07845461e+02
185             	3.07867335e+02
186             	3.07888948e+02
187             	3.07910392e+02
188             	3.07931605e+02
189             	3.07952573e+02
190             	3.07973303e+02
191             	3.07993803e+02
192             	3.08014000e+02
193             	3.08033890e+02
194             	3.08053507e+02
195             	3.08072861e+02
196             	3.08091920e+02
197             	3.08110742e+02
198             	3.08129335e+02
199             	3.08147716e+02
200             	3.08165865e+02
201             	3.08183796e+02
202             	3.08201516e+02
203             	3.08219040e+02
204             	3.08236389e+02
205             	3.08253517e+02
206             	3.08270459e+02
207             	3.08287255e+02
208             	3.08303891e+02
209             	3.08320321e+02
210             	3.08336563e+02
211             	3.08352650e+02
212             	3.08368571e+02
213             	3.08384263e+02
214             	3.08399816e+02
215             	3.08415183e+02
216             	3.08430310e+02
217             	3.08445235e+02
218             	3.08459920e+02
219             	3.08474420e+02
220             	3.08488748e+02
221             	3.08502874e+02
222             	3.08516789e+02
223             	3.08530558e+02
224             	3.08544152e+02
225             	3.08557551e+02
226             	3.08570786e+02
227             	3.08583872e+02
228             	3.08596818e+02
229             	3.08609601e+02
230             	3.08622215e+02
231             	3.08634640e+02
232             	3.08646958e+02
233             	3.08659155e+02
234             	3.08671219e+02
235             	3.08683164e+02
236             	3.08695002e+02
237             	3.08706751e+02
238             	3.08718397e+02
239             	3.08729923e+02
240             	3.08741308e+02
241             	3.08752513e+02
242             	3.08763596e+02
243             	3.08774566e+02
244             	3.08785440e+02
245             	3.08796193e+02
246             	3.08806824e+02
247             	3.08817341e+02
248             	3.08827779e+02
249             	3.08838107e+02
250             	3.08848303e+02
251             	3.08858381e+02
252             	3.08868351e+02
253             	3.08878172e+02
254             	3.08887877e+02
255             	3.08897475e+02
256             	3.08906939e+02
257             	3.08916278e+02
258             	3.08925529e+02
259             	3.08934688e+02
260             	3.08943722e+02
261             	3.08952667e+02
262             	3.08961564e+02
263             	3.08970371e+02
264             	3.08979062e+02
265             	3.08987688e+02
266             	3.08996254e+02
267             	3.09004755e+02
268             	3.09013161e+02
269             	3.09021478e+02
270             	3.09029748e+02
271             	3.09037931e+02
272             	3.09046057e+02
273             	3.09054134e+02
274             	3.09062152e+02
275             	3.09070088e+02
276             	3.09077981e+02
277             	3.09085842e+02
278             	3.09093675e+02
279             	3.09101438e+02
280             	3.09109168e+02
281             	3.09116871e+02
282             	3.09124533e+02
283             	3.09132107e+02
284             	3.09139638e+02
285             	3.09147148e+02
286             	3.09154649e+02
287             	3.09162092e+02
288             	3.09169501e+02
289             	3.09176877e+02
290             	3.09184206e+02
291             	3.09191466e+02
292             	3.09198696e+02
293             	3.09205912e+02
294             	3.09213107e+02
295             	3.09220241e+02
296             	3.09227340e+02
297             	3.09234414e+02
298             	3.09241487e+02
299             	3.09248507e+02
300             	3.09255503e+02
301             	3.09262492e+02
302             	3.09269463e+02
303             	3.09276387e+02
304             	3.09283297e+02
305             	3.09290203e+02
306             	3.09297102e+02
307             	3.09303968e+02
308             	3.09310826e+02
309             	3.09317684e+02
310             	3.09324542e+02
311             	3.09331366e+02
312             	3.09338182e+02
313             	3.09344999e+02
314             	3.09351814e+02
315             	3.09358598e+02
316             	3.09365376e+02
317             	3.09372153e+02
318             	3.09378930e+02
319             	3.09385676e+02
320             	3.09392419e+02
321             	3.09399168e+02
322             	3.09405923e+02
323             	3.09412652e+02
324             	3.09419386e+02
325             	3.09426141e+02
326             	3.09432905e+02
327             	3.09439645e+02
328             	3.09446391e+02
329             	3.09453145e+02
330             	3.09459902e+02
331             	3.09466628e+02
332             	3.09473355e+02
333             	3.09480101e+02
334             	3.09486865e+02
335             	3.09493608e+02
336             	3.09500363e+02
337             	3.09507117e+02
338             	3.09513888e+02
339             	3.09520642e+02
340             	3.09527400e+02
341             	3.09534159e+02
342             	3.09540918e+02
343             	3.09547652e+02
344             	3.09554398e+02
345             	3.09561161e+02
346             	3.09567937e+02
347             	3.09574683e+02
348             	3.09581432e+02
349             	3.09588188e+02
350             	3.09594955e+02
351             	3.09601697e+02
352             	3.09608445e+02
353             	3.09615204e+02
354             	3.09621971e+02
355             	3.09628712e+02
356             	3.09635455e+02
357             	3.09642206e+02
358             	3.09648957e+02
359             	3.09655676e+02
360             	3.09662397e+02
361             	3.09669127e+02
362             	3.09675863e+02
363             	3.09682569e+02
364             	3.09689269e+02
365             	3.09695971e+02
366             	3.09702673e+02
367             	3.09709343e+02
368             	3.09716005e+02
369             	3.09722672e+02
370             	3.09729347e+02
371             	3.09735989e+02
372             	3.09742623e+02
373             	3.09749258e+02
374             	3.09755894e+02
375             	3.09762494e+02
376             	3.09769080e+02
377             	3.09775667e+02
378             	3.09782260e+02
379             	3.09788811e+02
380             	3.09795350e+02
381             	3.09801892e+02
382             	3.09808430e+02
383             	3.09814940e+02
384             	3.09821451e+02
385             	3.09827961e+02
386             	3.09834469e+02
387             	3.09840935e+02
388             	3.09847376e+02
389             	3.09853811e+02
390             	3.09860241e+02
391             	3.09866627e+02
392             	3.09873000e+02
393             	3.09879372e+02
394             	3.09885736e+02
395             	3.09892075e+02
396             	3.09898406e+02
397             	3.09904732e+02
398             	3.09911051e+02
399             	3.09917334e+02
400             	3.09923592e+02
401             	3.09929852e+02
402             	3.09936119e+02
403             	3.09942351e+02
404             	3.09948563e+02
405             	3.09954774e+02
406             	3.09960974e+02
407             	3.09967147e+02
408             	3.09973317e+02
409             	3.09979491e+02
410             	3.09985659e+02
411             	3.09991785e+02
412             	3.09997883e+02
413             	3.10003975e+02
414             	3.10010068e+02
415             	3.10016135e+02
416             	3.10022178e+02
417             	3.10028220e+02
418             	3.10034249e+02
419             	3.10040244e+02
420             	3.10046213e+02
421             	3.10052168e+02
422             	3.10058096e+02
423             	3.10063986e+02
424             	3.10069846e+02
425             	3.10075694e+02
426             	3.10081524e+02
427             	3.10087321e+02
428             	3.10093088e+02
429             	3.10098849e+02
430             	3.10104593e+02
431             	3.10110298e+02
432             	3.10115968e+02
433             	3.10121622e+02
434             	3.10127256e+02
435             	3.10132853e+02
436             	3.10138405e+02
437             	3.10143944e+02
438             	3.10149466e+02
439             	3.10154960e+02
440             	3.10160415e+02
441             	3.10165857e+02
442             	3.10171287e+02
443             	3.10176691e+02
444             	3.10182058e+02
445             	3.10187415e+02
446             	3.10192756e+02
447             	3.10198070e+02
448             	3.10203344e+02
449             	3.10208610e+02
450             	3.10213862e+02
451             	3.10219093e+02
452             	3.10224288e+02
453             	3.10229478e+02
454             	3.10234658e+02
455             	3.10239816e+02
456             	3.10244937e+02
457             	3.10250047e+02
458             	3.10255147e+02
459             	3.10260230e+02
460             	3.10265273e+02
461             	3.10270305e+02
462             	3.10275325e+02
463             	3.10280329e+02
464             	3.10285285e+02
465             	3.10290233e+02
466             	3.10295182e+02
467             	3.10300105e+02
468             	3.10304980e+02
469             	3.10309854e+02
470             	3.10314707e+02
471             	3.10319538e+02
472             	3.10324311e+02
473             	3.10329072e+02
474             	3.10333810e+02
475             	3.10338549e+02
476             	3.10343209e+02
477             	3.10347859e+02
478             	3.10352487e+02
479             	3.10357116e+02
480             	3.10361666e+02
481             	3.10366203e+02
482             	3.10370721e+02
483             	3.10375235e+02
484             	3.10379675e+02
485             	3.10384104e+02
486             	3.10388506e+02
487             	3.10392904e+02
488             	3.10397222e+02
489             	3.10401526e+02
490             	3.10405807e+02
491             	3.10410087e+02
492             	3.10414292e+02
493             	3.10418483e+02
494             	3.10422649e+02
495             	3.10426813e+02
496             	3.10430906e+02
497             	3.10434990e+02
498             	3.10439051e+02
499             	3.10443106e+02
500             	3.10447094e+02
501             	3.10451070e+02
502             	3.10455030e+02
503             	3.10458990e+02
504             	3.10462888e+02
505             	3.10466770e+02
506             	3.10470635e+02
507             	3.10474505e+02
508             	3.10478317e+02
509             	3.10482116e+02
510             	3.10485889e+02
511             	3.10489657e+02
512             	3.10493359e+02
513             	3.10497045e+02
514             	3.10500711e+02
515             	3.10504380e+02
516             	3.10507998e+02
517             	3.10511605e+02
518             	3.10515187e+02
519             	3.10518767e+02
520             	3.10522282e+02
521             	3.10525779e+02
522             	3.10529255e+02
523             	3.10532732e+02
524             	3.10536151e+02
525             	3.10539563e+02
526             	3.10542956e+02
527             	3.10546355e+02
528             	3.10549703e+02
529             	3.10553047e+02
530             	3.10556372e+02
531             	3.10559691e+02
532             	3.10562949e+02
533             	3.10566197e+02
534             	3.10569426e+02
535             	3.10572653e+02
536             	3.10575821e+02
537             	3.10578988e+02
538             	3.10582138e+02
539             	3.10585287e+02
540             	3.10588379e+02
541             	3.10591464e+02
542             	3.10594525e+02
543             	3.10597585e+02
544             	3.10600588e+02
545             	3.10603601e+02
546             	3.10606589e+02
547             	3.10609572e+02
548             	3.10612498e+02
549             	3.10615422e+02
550             	3.10618323e+02
551             	3.10621219e+02
552             	3.10624057e+02
553             	3.10626910e+02
554             	3.10629720e+02
555             	3.10632520e+02
556             	3.10635253e+02
557             	3.10637993e+02
558             	3.10640690e+02
559             	3.10643376e+02
560             	3.10645994e+02
561             	3.10648622e+02
562             	3.10651208e+02
563             	3.10653779e+02
564             	3.10656287e+02
565             	3.10658805e+02
566             	3.10661302e+02
567             	3.10663774e+02
568             	3.10666189e+02
569             	3.10668614e+02
570             	3.10671021e+02
571             	3.10673412e+02
572             	3.10675755e+02
573             	3.10678112e+02
574             	3.10680442e+02
575             	3.10682752e+02
576             	3.10685015e+02
577             	3.10687292e+02
578             	3.10689553e+02
579             	3.10691797e+02
580             	3.10693992e+02
581             	3.10696198e+02
582             	3.10698387e+02
583             	3.10700559e+02
584             	3.10702680e+02
585             	3.10704811e+02
586             	3.10706926e+02
587             	3.10709024e+02
588             	3.10711072e+02
589             	3.10713127e+02
590             	3.10715162e+02
591             	3.10717177e+02
592             	3.10719150e+02
593             	3.10721129e+02
594             	3.10723086e+02
595             	3.10725020e+02
596             	3.10726906e+02
597             	3.10728799e+02
598             	3.10730673e+02
599             	3.10732529e+02
600             	3.10734347e+02
601             	3.10736178e+02
602             	3.10737989e+02
603             	3.10739774e+02
604             	3.10741517e+02
605             	3.10743261e+02
606             	3.10744983e+02
607             	3.10746687e+02
608             	3.10748351e+02
609             	3.10750017e+02
610             	3.10751665e+02
611             	3.10753298e+02
612             	3.10754897e+02
613             	3.10756499e+02
614             	3.10758085e+02
615             	3.10759654e+02
616             	3.10761186e+02
617             	3.10762713e+02
618             	3.10764231e+02
619             	3.10765739e+02
620             	3.10767218e+02
621             	3.10768697e+02
622             	3.10770163e+02
623             	3.10771628e+02
624             	3.10773059e+02
625             	3.10774495e+02
626             	3.10775921e+02
627             	3.10777336e+02
628             	3.10778718e+02
629             	3.10780104e+02
630             	3.10781482e+02
631             	3.10782850e+02
632             	3.10784189e+02
633             	3.10785529e+02
634             	3.10786855e+02
635             	3.10788168e+02
636             	3.10789453e+02
637             	3.10790740e+02
638             	3.10792019e+02
639             	3.10793289e+02
640             	3.10794523e+02
641             	3.10795762e+02
642             	3.10796991e+02
643             	3.10798209e+02
644             	3.10799396e+02
645             	3.10800582e+02
646             	3.10801762e+02
647             	3.10802928e+02
648             	3.10804065e+02
649             	3.10805204e+02
650             	3.10806330e+02
651             	3.10807445e+02
652             	3.10808539e+02
653             	3.10809635e+02
654             	3.10810721e+02
655             	3.10811802e+02
656             	3.10812864e+02
657             	3.10813933e+02
658             	3.10815001e+02
659             	3.10816062e+02
660             	3.10817103e+02
661             	3.10818153e+02
662             	3.10819196e+02
663             	3.10820236e+02
664             	3.10821265e+02
665             	3.10822299e+02
666             	3.10823326e+02
667             	3.10824345e+02
668             	3.10825349e+02
669             	3.10826355e+02
670             	3.10827348e+02
671             	3.10828332e+02
672             	3.10829296e+02
673             	3.10830267e+02
674             	3.10831233e+02
675             	3.10832194e+02
676             	3.10833136e+02
677             	3.10834076e+02
678             	3.10835009e+02
679             	3.10835932e+02
680             	3.10836830e+02
681             	3.10837728e+02
682             	3.10838615e+02
683             	3.10839495e+02
684             	3.10840352e+02
685             	3.10841210e+02
686             	3.10842055e+02
687             	3.10842886e+02
688             	3.10843697e+02
689             	3.10844511e+02
690             	3.10845315e+02
691             	3.10846111e+02
692             	3.10846887e+02
693             	3.10847671e+02
694             	3.10848446e+02
695             	3.10849212e+02
696             	3.10849963e+02
697             	3.10850716e+02
698             	3.10851463e+02
699             	3.10852201e+02
700             	3.10852924e+02
701             	3.10853657e+02
702             	3.10854390e+02
703             	3.10855118e+02
704             	3.10855837e+02
705             	3.10856557e+02
706             	3.10857277e+02
707             	3.10857996e+02
708             	3.10858704e+02
709             	3.10859405e+02
710             	3.10860096e+02
711             	3.10860782e+02
712             	3.10861462e+02
713             	3.10862146e+02
714             	3.10862829e+02
715             	3.10863511e+02
716             	3.10864183e+02
717             	3.10864857e+02
718             	3.10865519e+02
719             	3.10866176e+02
720             	3.10866822e+02
721             	3.10867464e+02
722             	3.10868098e+02
723             	3.10868723e+02
724             	3.10869334e+02
725             	3.10869950e+02
726             	3.10870555e+02
727             	3.10871147e+02
728             	3.10871730e+02
729             	3.10872311e+02
730             	3.10872887e+02
731             	3.10873458e+02
732             	3.10874017e+02
733             	3.10874569e+02
734             	3.10875114e+02
735             	3.10875651e+02
736             	3.10876176e+02
737             	3.10876695e+02
738             	3.10877205e+02
739             	3.10877708e+02
740             	3.10878204e+02
741             	3.10878699e+02
742             	3.10879191e+02
743             	3.10879679e+02
744             	3.10880160e+02
745             	3.10880642e+02
746             	3.10881116e+02
747             	3.10881588e+02
748             	3.10882056e+02
749             	3.10882524e+02
750             	3.10882987e+02
751             	3.10883448e+02
752             	3.10883906e+02
753             	3.10884363e+02
754             	3.10884817e+02
755             	3.10885269e+02
756             	3.10885718e+02
757             	3.10886167e+02
758             	3.10886616e+02
759             	3.10887064e+02
760             	3.10887506e+02
761             	3.10887949e+02
762             	3.10888387e+02
763             	3.10888825e+02
764             	3.10889260e+02
765             	3.10889698e+02
766             	3.10890136e+02
767             	3.10890572e+02
768             	3.10891007e+02
769             	3.10891444e+02
770             	3.10891881e+02
771             	3.10892318e+02
772             	3.10892753e+02
773             	3.10893192e+02
774             	3.10893635e+02
775             	3.10894081e+02
776             	3.10894528e+02
777             	3.10894981e+02
778             	3.10895438e+02
779             	3.10895898e+02
780             	3.10896358e+02
781             	3.10896825e+02
782             	3.10897296e+02
783             	3.10897770e+02
784             	3.10898243e+02
785             	3.10898723e+02
786             	3.10899203e+02
787             	3.10899686e+02
788             	3.10900170e+02
789             	3.10900661e+02
790             	3.10901154e+02
791             	3.10901651e+02
792             	3.10902150e+02
793             	3.10902654e+02
794             	3.10903163e+02
795             	3.10903676e+02
796             	3.10904190e+02
797             	3.10904711e+02
798             	3.10905231e+02
799             	3.10905755e+02
800             	3.10906279e+02
801             	3.10906805e+02
802             	3.10907329e+02
803             	3.10907854e+02
804             	3.10908381e+02
805             	3.10908909e+02
806             	3.10909436e+02
807             	3.10909965e+02
808             	3.10910494e+02
809             	3.10911019e+02
810             	3.10911544e+02
811             	3.10912069e+02
812             	3.10912592e+02
813             	3.10913117e+02
814             	3.10913639e+02
815             	3.10914159e+02
816             	3.10914675e+02
817             	3.10915188e+02
818             	3.10915699e+02
819             	3.10916201e+02
820             	3.10916700e+02
821             	3.10917197e+02
822             	3.10917687e+02
823             	3.10918172e+02
824             	3.10918651e+02
825             	3.10919125e+02
826             	3.10919592e+02
827             	3.10920053e+02
828             	3.10920506e+02
829             	3.10920954e+02
830             	3.10921397e+02
831             	3.10921833e+02
832             	3.10922259e+02
833             	3.10922677e+02
834             	3.10923088e+02
835             	3.10923492e+02
836             	3.10923885e+02
837             	3.10924270e+02
838             	3.10924649e+02
839             	3.10925020e+02
840             	3.10925385e+02
841             	3.10925748e+02
842             	3.10926108e+02
843             	3.10926466e+02
844             	3.10926817e+02
845             	3.10927163e+02
846             	3.10927503e+02
847             	3.10927838e+02
848             	3.10928164e+02
849             	3.10928485e+02
850             	3.10928802e+02
851             	3.10929111e+02
852             	3.10929419e+02
853             	3.10929723e+02
854             	3.10930018e+02
855             	3.10930313e+02
856             	3.10930597e+02
857             	3.10930877e+02
858             	3.10931155e+02
859             	3.10931426e+02
860             	3.10931684e+02
861             	3.10931934e+02
862             	3.10932176e+02
863             	3.10932414e+02
864             	3.10932646e+02
865             	3.10932875e+02
866             	3.10933101e+02
867             	3.10933333e+02
868             	3.10933560e+02
869             	3.10933793e+02
870             	3.10934029e+02
871             	3.10934259e+02
872             	3.10934485e+02
873             	3.10934714e+02
874             	3.10934942e+02
875             	3.10935167e+02
876             	3.10935393e+02
877             	3.10935629e+02
878             	3.10935873e+02
879             	3.10936125e+02
880             	3.10936368e+02
881             	3.10936617e+02
882             	3.10936862e+02
883             	3.10937106e+02
884             	3.10937357e+02
885             	3.10937623e+02
886             	3.10937896e+02
887             	3.10938176e+02
888             	3.10938462e+02
889             	3.10938760e+02
890             	3.10939063e+02
891             	3.10939367e+02
892             	3.10939668e+02
893             	3.10939970e+02
894             	3.10940270e+02
895             	3.10940562e+02
896             	3.10940854e+02
897             	3.10941155e+02
898             	3.10941467e+02
899             	3.10941790e+02
900             	3.10942100e+02
901             	3.10942410e+02
902             	3.10942727e+02
903             	3.10943051e+02
904             	3.10943374e+02
905             	3.10943701e+02
906             	3.10944025e+02
907             	3.10944352e+02
908             	3.10944682e+02
909             	3.10945019e+02
910             	3.10945359e+02
911             	3.10945697e+02
912             	3.10946034e+02
913             	3.10946381e+02
914             	3.10946729e+02
915             	3.10947078e+02
916             	3.10947435e+02
917             	3.10947800e+02
918             	3.10948171e+02
919             	3.10948547e+02
920             	3.10948926e+02
921             	3.10949311e+02
922             	3.10949701e+02
923             	3.10950099e+02
924             	3.10950504e+02
925             	3.10950917e+02
926             	3.10951334e+02
927             	3.10951757e+02
928             	3.10952185e+02
929             	3.10952624e+02
930             	3.10953075e+02
931             	3.10953533e+02
932             	3.10953996e+02
933             	3.10954464e+02