# Region        : cellZone component_0
# Cells         : 168
# Volume        : 2.01066598e-01
# Time          	volAverage(T)
1               	3.00568217e+02
2               	3.01130031e+02
3               	3.01647359e+02
4               	3.02135412e+02
5               	3.02611408e+02
6               	3.03077554e+02
7               	3.03534375e+02
8               	3.03979401e+02
9               	3.04414581e+02
10              	3.04841196e+02
11              	3.05264519e+02
12              	3.05682595e+02
13              	3.06091272e+02
14              	3.06492215e+02
15              	3.06890427e+02
16              	3.07285509e+02
17              	3.07677445e+02
18              	3.08057004e+02
19              	3.08438789e+02
20              	3.08814869e+02
21              	3.09182587e+02
22              	3.09542700e+02
23              	3.09895811e+02
24              	3.10250059e+02
25              	3.10587166e+02
26              	3.10915593e+02
27              	3.11240865e+02
28              	3.11562025e+02
29              	3.11880907e+02
30              	3.12196334e+02
31              	3.12509166e+02
32              	3.12818899e+02
33              	3.13124911e+02
34              	3.13421738e+02
35              	3.13716231e+02
36              	3.14010729e+02
37              	3.14290565e+02
38              	3.14554757e+02
39              	3.14815953e+02
40              	3.15071547e+02
41              	3.15316965e+02
42              	3.15556285e+02
43              	3.15786769e+02
44              	3.16010827e+02
45              	3.16230802e+02
46              	3.16455460e+02
47              	3.16694305e+02
48              	3.16926762e+02
49              	3.17158509e+02
50              	3.17394311e+02
51              	3.17630095e+02
52              	3.17858382e+02
53              	3.18083754e+02
54              	3.18305970e+02
55              	3.18519441e+02
56              	3.18723021e+02
57              	3.18918792e+02
58              	3.19107829e+02
59              	3.19291849e+02
60              	3.19469061e+02
61              	3.19638870e+02
62              	3.19806089e+02
63              	3.19969980e+02
64              	3.20131814e+02
65              	3.20294432e+02
66              	3.20460568e+02
67              	3.20630477e+02
68              	3.20798641e+02
69              	3.20965636e+02
70              	3.21115603e+02
71              	3.21269075e+02
72              	3.21422518e+02
73              	3.21572089e+02
74              	3.21715110e+02
75              	3.21848624e+02
76              	3.21973040e+02
77              	3.22089548e+02
78              	3.22204939e+02
79              	3.22316912e+02
80              	3.22434103e+02
81              	3.22553063e+02
82              	3.22678150e+02
83              	3.22810440e+02
84              	3.22942417e+02
85              	3.23073538e+02
86              	3.23200916e+02
87              	3.23326823e+02
88              	3.23444706e+02
89              	3.23554313e+02
90              	3.23657323e+02
91              	3.23757726e+02
92              	3.23856054e+02
93              	3.23953233e+02
94              	3.24048574e+02
95              	3.24143650e+02
96              	3.24237563e+02
97              	3.24330721e+02
98              	3.24426783e+02
99              	3.24529212e+02
100             	3.24636620e+02
101             	3.24747925e+02
102             	3.24861161e+02
103             	3.24974891e+02
104             	3.25081834e+02
105             	3.25185307e+02
106             	3.25279156e+02
107             	3.25362661e+02
108             	3.25435402e+02
109             	3.25500959e+02
110             	3.25560851e+02
111             	3.25625449e+02
112             	3.25695060e+02
113             	3.25768278e+02
114             	3.25848395e+02
115             	3.25935679e+02
116             	3.26026996e+02
117             	3.26109710e+02
118             	3.26189871e+02
119             	3.26264733e+02
120             	3.26333354e+02
121             	3.26397041e+02
122             	3.26455862e+02
123             	3.26510284e+02
124             	3.26560135e+02
125             	3.26607759e+02
126             	3.26658673e+02
127             	3.26715847e+02
128             	3.26779564e+02
129             	3.26853672e+02
130             	3.26920085e+02
131             	3.26985146e+02
132             	3.26999089e+02
133             	3.27000739e+02
134             	3.27017534e+02
135             	3.27036302e+02
136             	3.27050378e+02
137             	3.27062587e+02
138             	3.27073023e+02
139             	3.27085039e+02
140             	3.27107350e+02
141             	3.27145728e+02
142             	3.27202380e+02
143             	3.27263307e+02
144             	3.27328940e+02
145             	3.27381409e+02
146             	3.27434325e+02
147             	3.27477810e+02
148             	3.27514082e+02
149             	3.27538545e+02
150             	3.27552006e+02
151             	3.27558153e+02
152             	3.27565132e+02
153             	3.27572032e+02
154             	3.27586605e+02
155             	3.27620663e+02
156             	3.27662886e+02
157             	3.27699288e+02
158             	3.27745566e+02
159             	3.27785055e+02
160             	3.27819892e+02
161             	3.27851984e+02
162             	3.27879526e+02
163             	3.27907951e+02
164             	3.27936864e+02
165             	3.27966640e+02
166             	3.27995638e+02
167             	3.28026346e+02
168             	3.28053222e+02
169             	3.28086477e+02
170             	3.28122138e+02
171             	3.28163549e+02
172             	3.28209427e+02
173             	3.28258901e+02
174             	3.28311323e+02
175             	3.28365446e+02
176             	3.28421605e+02
177             	3.28480288e+02
178             	3.28537680e+02
179             	3.28595647e+02
180             	3.28652012e+02
181             	3.28704755e+02
182             	3.28750011e+02
183             	3.28789232e+02
184             	3.28822160e+02
185             	3.28849975e+02
186             	3.28872588e+02
187             	3.28896606e+02
188             	3.28924904e+02
189             	3.28958453e+02
190             	3.28997663e+02
191             	3.29041713e+02
192             	3.29091293e+02
193             	3.29142217e+02
194             	3.29190322e+02
195             	3.29233558e+02
196             	3.29272132e+02
197             	3.29306124e+02
198             	3.29337099e+02
199             	3.29364490e+02
200             	3.29389515e+02
201             	3.29413070e+02
202             	3.29434112e+02
203             	3.29458065e+02
204             	3.29484746e+02
205             	3.29513682e+02
206             	3.29544837e+02
207             	3.29578469e+02
208             	3.29614461e+02
209             	3.29652096e+02
210             	3.29689947e+02
211             	3.29727285e+02
212             	3.29764297e+02
213             	3.29800171e+02
214             	3.29832975e+02
215             	3.29862397e+02
216             	3.29888733e+02
217             	3.29912863e+02
218             	3.29934467e+02
219             	3.29954063e+02
220             	3.29972385e+02
221             	3.29991504e+02
222             	3.30009002e+02
223             	3.30028960e+02
224             	3.30050828e+02
225             	3.30074301e+02
226             	3.30098651e+02
227             	3.30123381e+02
228             	3.30148128e+02
229             	3.30172763e+02
230             	3.30196799e+02
231             	3.30220038e+02
232             	3.30243709e+02
233             	3.30266485e+02
234             	3.30288421e+02
235             	3.30309938e+02
236             	3.30329498e+02
237             	3.30346780e+02
238             	3.30363414e+02
239             	3.30378608e+02
240             	3.30393891e+02
241             	3.30408530e+02
242             	3.30422185e+02
243             	3.30435232e+02
244             	3.30447016e+02
245             	3.30458403e+02
246             	3.30472167e+02
247             	3.30487553e+02
248             	3.30503702e+02
249             	3.30521013e+02
250             	3.30538507e+02
251             	3.30556161e+02
252             	3.30573141e+02
253             	3.30589710e+02
254             	3.30604720e+02
255             	3.30619156e+02
256             	3.30631114e+02
257             	3.30643080e+02
258             	3.30653140e+02
259             	3.30663701e+02
260             	3.30674685e+02
261             	3.30685078e+02
262             	3.30695049e+02
263             	3.30705297e+02
264             	3.30714906e+02
265             	3.30724344e+02
266             	3.30734483e+02
267             	3.30742838e+02
268             	3.30751320e+02
269             	3.30761058e+02
270             	3.30771968e+02
271             	3.30783418e+02
272             	3.30795551e+02
273             	3.30808924e+02
274             	3.30821829e+02
275             	3.30835140e+02
276             	3.30847149e+02
277             	3.30858606e+02
278             	3.30869232e+02
279             	3.30877091e+02
280             	3.30884198e+02
281             	3.30889243e+02
282             	3.30894152e+02
283             	3.30897505e+02
284             	3.30901115e+02
285             	3.30903451e+02
286             	3.30906072e+02
287             	3.30911438e+02
288             	3.30918761e+02
289             	3.30927628e+02
290             	3.30937370e+02
291             	3.30947390e+02
292             	3.30957720e+02
293             	3.30968628e+02
294             	3.30979793e+02
295             	3.30989938e+02
296             	3.30997660e+02
297             	3.31005419e+02
298             	3.31012920e+02
299             	3.31019540e+02
300             	3.31023816e+02
301             	3.31027641e+02
302             	3.31029659e+02
303             	3.31032228e+02
304             	3.31034479e+02
305             	3.31038885e+02
306             	3.31045478e+02
307             	3.31053453e+02
308             	3.31062129e+02
309             	3.31071092e+02
310             	3.31080011e+02
311             	3.31088394e+02
312             	3.31095371e+02
313             	3.31099190e+02
314             	3.31102829e+02
315             	3.31104193e+02
316             	3.31105858e+02
317             	3.31106443e+02
318             	3.31107666e+02
319             	3.31109233e+02
320             	3.31110322e+02
321             	3.31111604e+02
322             	3.31113142e+02
323             	3.31116552e+02
324             	3.31120889e+02
325             	3.31124701e+02
326             	3.31129709e+02
327             	3.31134511e+02
328             	3.31140935e+02
329             	3.31148057e+02
330             	3.31154979e+02
331             	3.31161511e+02
332             	3.31166778e+02
333             	3.31169705e+02
334             	3.31171961e+02
335             	3.31171225e+02
336             	3.31170176e+02
337             	3.31167996e+02
338             	3.31165997e+02
339             	3.31166096e+02
340             	3.31166319e+02
341             	3.31169439e+02
342             	3.31174979e+02
343             	3.31182348e+02
344             	3.31190826e+02
345             	3.31199694e+02
346             	3.31208041e+02
347             	3.31214858e+02
348             	3.31219467e+02
349             	3.31221695e+02
350             	3.31223290e+02
351             	3.31222522e+02
352             	3.31221457e+02
353             	3.31219227e+02
354             	3.31218164e+02
355             	3.31216626e+02
356             	3.31215954e+02
357             	3.31216680e+02
358             	3.31218682e+02
359             	3.31221605e+02
360             	3.31224033e+02
361             	3.31225790e+02
362             	3.31227519e+02
363             	3.31229747e+02
364             	3.31232190e+02
365             	3.31235753e+02
366             	3.31238621e+02
367             	3.31242476e+02
368             	3.31246272e+02
369             	3.31249489e+02
370             	3.31250887e+02
371             	3.31249578e+02
372             	3.31248049e+02
373             	3.31244661e+02
374             	3.31241309e+02
375             	3.31237504e+02
376             	3.31235708e+02
377             	3.31234406e+02
378             	3.31235387e+02
379             	3.31238449e+02
380             	3.31243191e+02
381             	3.31249114e+02
382             	3.31255106e+02
383             	3.31260332e+02
384             	3.31263961e+02
385             	3.31265100e+02
386             	3.31265853e+02
387             	3.31263990e+02
388             	3.31262304e+02
389             	3.31259689e+02
390             	3.31258324e+02
391             	3.31256299e+02
392             	3.31255257e+02
393             	3.31255067e+02
394             	3.31255844e+02
395             	3.31257361e+02
396             	3.31259695e+02
397             	3.31262982e+02
398             	3.31267042e+02
399             	3.31269844e+02
400             	3.31272458e+02
401             	3.31274314e+02
402             	3.31274834e+02
403             	3.31274967e+02
404             	3.31273944e+02
405             	3.31273355e+02
406             	3.31271153e+02
407             	3.31269825e+02
408             	3.31267334e+02
409             	3.31266773e+02
410             	3.31265563e+02
411             	3.31266108e+02
412             	3.31266157e+02
413             	3.31267705e+02
414             	3.31269657e+02
415             	3.31272206e+02
416             	3.31274441e+02
417             	3.31277108e+02
418             	3.31279527e+02
419             	3.31280935e+02
420             	3.31281194e+02
421             	3.31280839e+02
422             	3.31279643e+02
423             	3.31279087e+02
424             	3.31277003e+02
425             	3.31275860e+02
426             	3.31274358e+02
427             	3.31273145e+02
428             	3.31271685e+02
429             	3.31270778e+02
430             	3.31270105e+02
431             	3.31271013e+02
432             	3.31271731e+02
433             	3.31273728e+02
434             	3.31274957e+02
435             	3.31276920e+02
436             	3.31278397e+02
437             	3.31280613e+02
438             	3.31281852e+02
439             	3.31283314e+02
440             	3.31283603e+02
441             	3.31283523e+02
442             	3.31282686e+02
443             	3.31282007e+02
444             	3.31280516e+02
445             	3.31279183e+02
446             	3.31278226e+02
447             	3.31277081e+02
448             	3.31276165e+02
449             	3.31275503e+02
450             	3.31276274e+02
451             	3.31276510e+02
452             	3.31277909e+02
453             	3.31279855e+02
454             	3.31281372e+02
455             	3.31282425e+02
456             	3.31283505e+02
457             	3.31284032e+02
458             	3.31284700e+02
459             	3.31284772e+02
460             	3.31285431e+02
461             	3.31285216e+02
462             	3.31285955e+02
463             	3.31285655e+02
464             	3.31286113e+02
465             	3.31285805e+02
466             	3.31286076e+02
467             	3.31285386e+02
468             	3.31285619e+02
469             	3.31284959e+02
470             	3.31285267e+02
471             	3.31284616e+02
472             	3.31285114e+02
473             	3.31284523e+02
474             	3.31285116e+02
475             	3.31284792e+02
476             	3.31285432e+02
477             	3.31285676e+02
478             	3.31286357e+02
479             	3.31286624e+02
480             	3.31287734e+02
481             	3.31288000e+02
482             	3.31289020e+02
483             	3.31288895e+02
484             	3.31289600e+02
485             	3.31289227e+02
486             	3.31289654e+02
487             	3.31289079e+02
488             	3.31289292e+02
489             	3.31288282e+02
490             	3.31288301e+02
491             	3.31287380e+02
492             	3.31287505e+02
493             	3.31287749e+02
494             	3.31287996e+02
495             	3.31288507e+02
496             	3.31288775e+02
497             	3.31289352e+02
498             	3.31289555e+02
499             	3.31290398e+02
500             	3.31290279e+02
501             	3.31291132e+02
502             	3.31291479e+02
503             	3.31291809e+02
504             	3.31292041e+02
505             	3.31292440e+02
506             	3.31292631e+02
507             	3.31292660e+02
508             	3.31292665e+02
509             	3.31292415e+02
510             	3.31292167e+02
511             	3.31291613e+02
512             	3.31291263e+02
513             	3.31291017e+02
514             	3.31291486e+02
515             	3.31291490e+02
516             	3.31292518e+02
517             	3.31292524e+02
518             	3.31293441e+02
519             	3.31293875e+02
520             	3.31294712e+02
521             	3.31294701e+02
522             	3.31295164e+02
523             	3.31294596e+02
524             	3.31294882e+02
525             	3.31294025e+02
526             	3.31294000e+02
527             	3.31293261e+02
528             	3.31293463e+02
529             	3.31292384e+02
530             	3.31292401e+02
531             	3.31291647e+02
532             	3.31291878e+02
533             	3.31291470e+02
534             	3.31292057e+02
535             	3.31291519e+02
536             	3.31291930e+02
537             	3.31291830e+02
538             	3.31292684e+02
539             	3.31292234e+02
540             	3.31292653e+02
541             	3.31292257e+02
542             	3.31292700e+02
543             	3.31292160e+02
544             	3.31292482e+02
545             	3.31291818e+02
546             	3.31292038e+02
547             	3.31291492e+02
548             	3.31291892e+02
549             	3.31291103e+02
550             	3.31291213e+02
551             	3.31290714e+02
552             	3.31291075e+02
553             	3.31290786e+02
554             	3.31291529e+02
555             	3.31291500e+02
556             	3.31292356e+02
557             	3.31292449e+02
558             	3.31293387e+02
559             	3.31293325e+02
560             	3.31294037e+02
561             	3.31293747e+02
562             	3.31294301e+02
563             	3.31293749e+02
564             	3.31294042e+02
565             	3.31293519e+02
566             	3.31293921e+02
567             	3.31293349e+02
568             	3.31293653e+02
569             	3.31293271e+02
570             	3.31293756e+02
571             	3.31293327e+02
572             	3.31293707e+02
573             	3.31293278e+02
574             	3.31293698e+02
575             	3.31293018e+02
576             	3.31293263e+02
577             	3.31292857e+02
578             	3.31293421e+02
579             	3.31292710e+02
580             	3.31293008e+02
581             	3.31292866e+02
582             	3.31293335e+02
583             	3.31293027e+02
584             	3.31293554e+02
585             	3.31293250e+02
586             	3.31293854e+02
587             	3.31293194e+02
588             	3.31293438e+02
589             	3.31292972e+02
590             	3.31293485e+02
591             	3.31292665e+02
592             	3.31292858e+02
593             	3.31292556e+02
594             	3.31292985e+02
595             	3.31292297e+02
596             	3.31292500e+02
597             	3.31292115e+02
598             	3.31292532e+02
599             	3.31291741e+02
600             	3.31291860e+02
601             	3.31291339e+02
602             	3.31291630e+02
603             	3.31290931e+02
604             	3.31291154e+02
605             	3.31290651e+02
606             	3.31291092e+02
607             	3.31290368e+02
608             	3.31290546e+02
609             	3.31290274e+02
610             	3.31290697e+02
611             	3.31290220e+02
612             	3.31290659e+02
613             	3.31290409e+02
614             	3.31291070e+02
615             	3.31290445e+02
616             	3.31290761e+02
617             	3.31290396e+02
618             	3.31291011e+02
619             	3.31290237e+02
620             	3.31290491e+02
621             	3.31290077e+02
622             	3.31290648e+02
623             	3.31289955e+02
624             	3.31290272e+02
625             	3.31290061e+02
626             	3.31290600e+02
627             	3.31289996e+02
628             	3.31290266e+02
629             	3.31289851e+02
630             	3.31290308e+02
631             	3.31289564e+02
632             	3.31289784e+02
633             	3.31289381e+02
634             	3.31289958e+02
635             	3.31289309e+02
636             	3.31289606e+02
637             	3.31289377e+02
638             	3.31289900e+02
639             	3.31289360e+02
640             	3.31289714e+02
641             	3.31289452e+02
642             	3.31290068e+02
643             	3.31289444e+02
644             	3.31289763e+02
645             	3.31289521e+02
646             	3.31290102e+02
647             	3.31289564e+02
648             	3.31289940e+02
649             	3.31289742e+02
650             	3.31290196e+02
651             	3.31289660e+02
652             	3.31290020e+02
653             	3.31289525e+02
654             	3.31289927e+02
655             	3.31289256e+02
656             	3.31289431e+02
657             	3.31288936e+02
658             	3.31289252e+02
659             	3.31288577e+02
660             	3.31288829e+02
661             	3.31288420e+02
662             	3.31288981e+02
663             	3.31288319e+02
664             	3.31288620e+02
665             	3.31288391e+02
666             	3.31288921e+02
667             	3.31288380e+02
668             	3.31288702e+02
669             	3.31288354e+02
670             	3.31288884e+02
671             	3.31288158e+02
672             	3.31288379e+02
673             	3.31288045e+02
674             	3.31288478e+02
675             	3.31287897e+02
676             	3.31288255e+02
677             	3.31287931e+02
678             	3.31288524e+02
679             	3.31287896e+02
680             	3.31288137e+02
681             	3.31287800e+02
682             	3.31288192e+02
683             	3.31287452e+02
684             	3.31287583e+02
685             	3.31287058e+02
686             	3.31287413e+02
687             	3.31286742e+02
688             	3.31287024e+02
689             	3.31286742e+02
690             	3.31287357e+02
691             	3.31286781e+02
692             	3.31287167e+02
693             	3.31287032e+02
694             	3.31287525e+02
695             	3.31286999e+02
696             	3.31287356e+02
697             	3.31286800e+02
698             	3.31287176e+02
699             	3.31286590e+02
700             	3.31286930e+02
701             	3.31286530e+02
702             	3.31287074e+02
703             	3.31286595e+02
704             	3.31286956e+02
705             	3.31286646e+02
706             	3.31287225e+02
707             	3.31286492e+02
708             	3.31286711e+02
709             	3.31286269e+02
710             	3.31286763e+02
711             	3.31285974e+02
712             	3.31286147e+02
713             	3.31285777e+02
714             	3.31286181e+02
715             	3.31285535e+02
716             	3.31285795e+02
717             	3.31285459e+02
718             	3.31285968e+02
719             	3.31285302e+02
720             	3.31285539e+02
721             	3.31285193e+02
722             	3.31285637e+02
723             	3.31284963e+02
724             	3.31285195e+02
725             	3.31284892e+02
726             	3.31285410e+02
727             	3.31284830e+02
728             	3.31285150e+02
729             	3.31284882e+02
730             	3.31285480e+02
731             	3.31284875e+02
732             	3.31285203e+02
733             	3.31284969e+02
734             	3.31285551e+02
735             	3.31284981e+02
736             	3.31285315e+02
737             	3.31285062e+02
738             	3.31285654e+02
739             	3.31284988e+02
740             	3.31285242e+02
741             	3.31284913e+02
742             	3.31285354e+02
743             	3.31284695e+02
744             	3.31284927e+02
745             	3.31284492e+02
746             	3.31285015e+02
747             	3.31284240e+02
748             	3.31284481e+02
749             	3.31284091e+02
750             	3.31284647e+02
751             	3.31283924e+02
752             	3.31284198e+02
753             	3.31283882e+02
754             	3.31284419e+02
755             	3.31283780e+02
756             	3.31284066e+02
757             	3.31283794e+02
758             	3.31284345e+02
759             	3.31283774e+02
760             	3.31284115e+02
761             	3.31283854e+02
762             	3.31284506e+02
763             	3.31283828e+02
764             	3.31284097e+02
765             	3.31283784e+02
766             	3.31284188e+02
767             	3.31283523e+02
768             	3.31283739e+02
769             	3.31283236e+02
770             	3.31283661e+02
771             	3.31282931e+02
772             	3.31283163e+02
773             	3.31282896e+02
774             	3.31283338e+02
775             	3.31282801e+02
776             	3.31283180e+02
777             	3.31282819e+02
778             	3.31283411e+02
779             	3.31282837e+02
780             	3.31283178e+02
781             	3.31282974e+02
782             	3.31283544e+02
783             	3.31283023e+02
784             	3.31283327e+02
785             	3.31283090e+02
786             	3.31283394e+02
787             	3.31282791e+02
788             	3.31283128e+02
789             	3.31282348e+02
790             	3.31282506e+02
791             	3.31282001e+02
792             	3.31282525e+02
793             	3.31281842e+02
794             	3.31282167e+02
795             	3.31281969e+02
796             	3.31282603e+02
797             	3.31282172e+02
798             	3.31282626e+02
799             	3.31282567e+02
800             	3.31282788e+02
801             	3.31282403e+02
802             	3.31282718e+02
803             	3.31282009e+02
804             	3.31282220e+02
805             	3.31281541e+02
806             	3.31281867e+02
807             	3.31281625e+02
808             	3.31282266e+02
809             	3.31281757e+02
810             	3.31282214e+02
811             	3.31282156e+02
812             	3.31282853e+02
813             	3.31282503e+02
814             	3.31283062e+02
815             	3.31282869e+02
816             	3.31283560e+02
817             	3.31282953e+02
818             	3.31283288e+02
819             	3.31282989e+02
820             	3.31283517e+02
821             	3.31282825e+02
822             	3.31283028e+02
823             	3.31282642e+02
824             	3.31283052e+02
825             	3.31282290e+02
826             	3.31282486e+02
827             	3.31282006e+02
828             	3.31282519e+02
829             	3.31281913e+02
830             	3.31282244e+02
831             	3.31282090e+02
832             	3.31282710e+02
833             	3.31282259e+02
834             	3.31282702e+02
835             	3.31282498e+02
836             	3.31283222e+02
837             	3.31282636e+02
838             	3.31282974e+02
839             	3.31282747e+02
840             	3.31283152e+02
841             	3.31282572e+02
842             	3.31282912e+02
843             	3.31282326e+02
844             	3.31282655e+02
845             	3.31282051e+02
846             	3.31282348e+02
847             	3.31281790e+02
848             	3.31282171e+02
849             	3.31281532e+02
850             	3.31281887e+02
851             	3.31281485e+02
852             	3.31282058e+02
853             	3.31281800e+02
854             	3.31282471e+02
855             	3.31282294e+02
856             	3.31282972e+02
857             	3.31282664e+02
858             	3.31283117e+02
859             	3.31282426e+02
860             	3.31282591e+02
861             	3.31282055e+02
862             	3.31282243e+02
863             	3.31281584e+02
864             	3.31281909e+02
865             	3.31281293e+02
866             	3.31281604e+02
867             	3.31281322e+02
868             	3.31282029e+02
869             	3.31281543e+02
870             	3.31282079e+02
871             	3.31282047e+02
872             	3.31282870e+02
873             	3.31282373e+02
874             	3.31282747e+02
875             	3.31282497e+02
876             	3.31282997e+02
877             	3.31282325e+02
878             	3.31282510e+02
879             	3.31282066e+02
880             	3.31282356e+02
881             	3.31281754e+02
882             	3.31282110e+02
883             	3.31281687e+02
884             	3.31282213e+02
885             	3.31281810e+02
886             	3.31282316e+02
887             	3.31282128e+02
888             	3.31282876e+02
889             	3.31282379e+02
890             	3.31282816e+02
891             	3.31282637e+02
892             	3.31283203e+02
893             	3.31282714e+02
894             	3.31283133e+02
895             	3.31282859e+02
896             	3.31283529e+02
897             	3.31282871e+02
898             	3.31283205e+02
899             	3.31282923e+02
900             	3.31283538e+02
901             	3.31282908e+02
902             	3.31283214e+02
903             	3.31282969e+02
904             	3.31283517e+02
905             	3.31282881e+02
906             	3.31283189e+02
907             	3.31282841e+02
908             	3.31283474e+02
909             	3.31282827e+02
910             	3.31283148e+02
911             	3.31282893e+02
912             	3.31283447e+02
913             	3.31282919e+02
914             	3.31283302e+02
915             	3.31283112e+02
916             	3.31283843e+02
917             	3.31283273e+02
918             	3.31283678e+02
919             	3.31283483e+02
920             	3.31284088e+02
921             	3.31283560e+02
922             	3.31283934e+02
923             	3.31283701e+02
924             	3.31284335e+02
925             	3.31283764e+02
926             	3.31284116e+02
927             	3.31283892e+02
928             	3.31284479e+02
929             	3.31283909e+02
930             	3.31284226e+02
931             	3.31283941e+02
932             	3.31284490e+02
933             	3.31283891e+02