# Region        : cellZone fluid
# Cells         : 8454
# Volume        : 1.56944563e+01
# Time          	volAverage(T)
1               	3.00000113e+02
2               	3.00000203e+02
3               	3.00000901e+02
4               	3.00001900e+02
5               	3.00002496e+02
6               	3.00003259e+02
7               	3.00003895e+02
8               	3.00004659e+02
9               	3.00005584e+02
10              	3.00006924e+02
11              	3.00008193e+02
12              	3.00009755e+02
13              	3.00011280e+02
14              	3.00012912e+02
15              	3.00014386e+02
16              	3.00016007e+02
17              	3.00018523e+02
18              	3.00019671e+02
19              	3.00021613e+02
20              	3.00023447e+02
21              	3.00024809e+02
22              	3.00026095e+02
23              	3.00028622e+02
24              	3.00030190e+02
25              	3.00031773e+02
26              	3.00034782e+02
27              	3.00038518e+02
28              	3.00041044e+02
29              	3.00043670e+02
30              	3.00046459e+02
31              	3.00049215e+02
32              	3.00052271e+02
33              	3.00055202e+02
34              	3.00059198e+02
35              	3.00061436e+02
36              	3.00063422e+02
37              	3.00066515e+02
38              	3.00068949e+02
39              	3.00072357e+02
40              	3.00074714e+02
41              	3.00077456e+02
42              	3.00081986e+02
43              	3.00086095e+02
44              	3.00089517e+02
45              	3.00093428e+02
46              	3.00096836e+02
47              	3.00100566e+02
48              	3.00103834e+02
49              	3.00106192e+02
50              	3.00109407e+02
51              	3.00113325e+02
52              	3.00116755e+02
53              	3.00118827e+02
54              	3.00122961e+02
55              	3.00126237e+02
56              	3.00129285e+02
57              	3.00132071e+02
58              	3.00135592e+02
59              	3.00138281e+02
60              	3.00142368e+02
61              	3.00145273e+02
62              	3.00148935e+02
63              	3.00150980e+02
64              	3.00153493e+02
65              	3.00155512e+02
66              	3.00157288e+02
67              	3.00159762e+02
68              	3.00161904e+02
69              	3.00164055e+02
70              	3.00166272e+02
71              	3.00169152e+02
72              	3.00172674e+02
73              	3.00175826e+02
74              	3.00178889e+02
75              	3.00181248e+02
76              	3.00184949e+02
77              	3.00188080e+02
78              	3.00191320e+02
79              	3.00194142e+02
80              	3.00196601e+02
81              	3.00199172e+02
82              	3.00201730e+02
83              	3.00204729e+02
84              	3.00206906e+02
85              	3.00208944e+02
86              	3.00211592e+02
87              	3.00214616e+02
88              	3.00217779e+02
89              	3.00221203e+02
90              	3.00224476e+02
91              	3.00228115e+02
92              	3.00231490e+02
93              	3.00234735e+02
94              	3.00237227e+02
95              	3.00240502e+02
96              	3.00243918e+02
97              	3.00246969e+02
98              	3.00249945e+02
99              	3.00252642e+02
100             	3.00255535e+02
101             	3.00258056e+02
102             	3.00260664e+02
103             	3.00264122e+02
104             	3.00266114e+02
105             	3.00268677e+02
106             	3.00271009e+02
107             	3.00274377e+02
108             	3.00277804e+02
109             	3.00280091e+02
110             	3.00282681e+02
111             	3.00286354e+02
112             	3.00289076e+02
113             	3.00291482e+02
114             	3.00293903e+02
115             	3.00296656e+02
116             	3.00299738e+02
117             	3.00302808e+02
118             	3.00306156e+02
119             	3.00308829e+02
120             	3.00311247e+02
121             	3.00313474e+02
122             	3.00315607e+02
123             	3.00317781e+02
124             	3.00320311e+02
125             	3.00322776e+02
126             	3.00325119e+02
127             	3.00328118e+02
128             	3.00330289e+02
129             	3.00332697e+02
130             	3.00335458e+02
131             	3.00337709e+02
132             	3.00340626e+02
133             	3.00343086e+02
134             	3.00345564e+02
135             	3.00347672e+02
136             	3.00350404e+02
137             	3.00353253e+02
138             	3.00355517e+02
139             	3.00358300e+02
140             	3.00360411e+02
141             	3.00362944e+02
142             	3.00365245e+02
143             	3.00367418e+02
144             	3.00369376e+02
145             	3.00371077e+02
146             	3.00372681e+02
147             	3.00375045e+02
148             	3.00377598e+02
149             	3.00379576e+02
150             	3.00381797e+02
151             	3.00384090e+02
152             	3.00386239e+02
153             	3.00388316e+02
154             	3.00390411e+02
155             	3.00392531e+02
156             	3.00394561e+02
157             	3.00396631e+02
158             	3.00398733e+02
159             	3.00400838e+02
160             	3.00403027e+02
161             	3.00405233e+02
162             	3.00407029e+02
163             	3.00408825e+02
164             	3.00410914e+02
165             	3.00412818e+02
166             	3.00414568e+02
167             	3.00416206e+02
168             	3.00417883e+02
169             	3.00419583e+02
170             	3.00421272e+02
171             	3.00422970e+02
172             	3.00424765e+02
173             	3.00426416e+02
174             	3.00428193e+02
175             	3.00430012e+02
176             	3.00431625e+02
177             	3.00433306e+02
178             	3.00435125e+02
179             	3.00436758e+02
180             	3.00438297e+02
181             	3.00439729e+02
182             	3.00441189e+02
183             	3.00442747e+02
184             	3.00444307e+02
185             	3.00445707e+02
186             	3.00447160e+02
187             	3.00448512e+02
188             	3.00449831e+02
189             	3.00451159e+02
190             	3.00452371e+02
191             	3.00453616e+02
192             	3.00454839e+02
193             	3.00456041e+02
194             	3.00457090e+02
195             	3.00458117e+02
196             	3.00459316e+02
197             	3.00460567e+02
198             	3.00461867e+02
199             	3.00463150e+02
200             	3.00464386e+02
201             	3.00465595e+02
202             	3.00466782e+02
203             	3.00468061e+02
204             	3.00469267e+02
205             	3.00470509e+02
206             	3.00471782e+02
207             	3.00473047e+02
208             	3.00474333e+02
209             	3.00475633e+02
210             	3.00476782e+02
211             	3.00477953e+02
212             	3.00479041e+02
213             	3.00480071e+02
214             	3.00481114e+02
215             	3.00482326e+02
216             	3.00483331e+02
217             	3.00484406e+02
218             	3.00485504e+02
219             	3.00486608e+02
220             	3.00487708e+02
221             	3.00488794e+02
222             	3.00489838e+02
223             	3.00490840e+02
224             	3.00491825e+02
225             	3.00492823e+02
226             	3.00493784e+02
227             	3.00494724e+02
228             	3.00495685e+02
229             	3.00496609e+02
230             	3.00497542e+02
231             	3.00498467e+02
232             	3.00499384e+02
233             	3.00500294e+02
234             	3.00501237e+02
235             	3.00502143e+02
236             	3.00503038e+02
237             	3.00503956e+02
238             	3.00504869e+02
239             	3.00505745e+02
240             	3.00506585e+02
241             	3.00507403e+02
242             	3.00508234e+02
243             	3.00509067e+02
244             	3.00509862e+02
245             	3.00510656e+02
246             	3.00511443e+02
247             	3.00512262e+02
248             	3.00513152e+02
249             	3.00513885e+02
250             	3.00514636e+02
251             	3.00515385e+02
252             	3.00516124e+02
253             	3.00516859e+02
254             	3.00517714e+02
255             	3.00518608e+02
256             	3.00519533e+02
257             	3.00520484e+02
258             	3.00521458e+02
259             	3.00522451e+02
260             	3.00523465e+02
261             	3.00524403e+02
262             	3.00525517e+02
263             	3.00526613e+02
264             	3.00527664e+02
265             	3.00528663e+02
266             	3.00529619e+02
267             	3.00530586e+02
268             	3.00531557e+02
269             	3.00532531e+02
270             	3.00533524e+02
271             	3.00534543e+02
272             	3.00535576e+02
273             	3.00536548e+02
274             	3.00537542e+02
275             	3.00538511e+02
276             	3.00539473e+02
277             	3.00540421e+02
278             	3.00541350e+02
279             	3.00542262e+02
280             	3.00543154e+02
281             	3.00544059e+02
282             	3.00545088e+02
283             	3.00545815e+02
284             	3.00546682e+02
285             	3.00547506e+02
286             	3.00548362e+02
287             	3.00549243e+02
288             	3.00550144e+02
289             	3.00551070e+02
290             	3.00552021e+02
291             	3.00553044e+02
292             	3.00554063e+02
293             	3.00555024e+02
294             	3.00555851e+02
295             	3.00556973e+02
296             	3.00557945e+02
297             	3.00558876e+02
298             	3.00559826e+02
299             	3.00560827e+02
300             	3.00561760e+02
301             	3.00562701e+02
302             	3.00563686e+02
303             	3.00564644e+02
304             	3.00565493e+02
305             	3.00566392e+02
306             	3.00567299e+02
307             	3.00568177e+02
308             	3.00569030e+02
309             	3.00569902e+02
310             	3.00570822e+02
311             	3.00571618e+02
312             	3.00572671e+02
313             	3.00573486e+02
314             	3.00574257e+02
315             	3.00575055e+02
316             	3.00575914e+02
317             	3.00576762e+02
318             	3.00577473e+02
319             	3.00578205e+02
320             	3.00578985e+02
321             	3.00580067e+02
322             	3.00581022e+02
323             	3.00581947e+02
324             	3.00582924e+02
325             	3.00583836e+02
326             	3.00584807e+02
327             	3.00585731e+02
328             	3.00586611e+02
329             	3.00587371e+02
330             	3.00588219e+02
331             	3.00589012e+02
332             	3.00589801e+02
333             	3.00590614e+02
334             	3.00591514e+02
335             	3.00592382e+02
336             	3.00592920e+02
337             	3.00593553e+02
338             	3.00594198e+02
339             	3.00594869e+02
340             	3.00595570e+02
341             	3.00596227e+02
342             	3.00596859e+02
343             	3.00597542e+02
344             	3.00598286e+02
345             	3.00599061e+02
346             	3.00599785e+02
347             	3.00600451e+02
348             	3.00600804e+02
349             	3.00601632e+02
350             	3.00602313e+02
351             	3.00602904e+02
352             	3.00603590e+02
353             	3.00604416e+02
354             	3.00605209e+02
355             	3.00605935e+02
356             	3.00606631e+02
357             	3.00607246e+02
358             	3.00607707e+02
359             	3.00608217e+02
360             	3.00608740e+02
361             	3.00609339e+02
362             	3.00609712e+02
363             	3.00610192e+02
364             	3.00610649e+02
365             	3.00611198e+02
366             	3.00611798e+02
367             	3.00612144e+02
368             	3.00612885e+02
369             	3.00613446e+02
370             	3.00613938e+02
371             	3.00614493e+02
372             	3.00614829e+02
373             	3.00615517e+02
374             	3.00616074e+02
375             	3.00616564e+02
376             	3.00616965e+02
377             	3.00617406e+02
378             	3.00617799e+02
379             	3.00618473e+02
380             	3.00619129e+02
381             	3.00619347e+02
382             	3.00619718e+02
383             	3.00620080e+02
384             	3.00620526e+02
385             	3.00621010e+02
386             	3.00621432e+02
387             	3.00621852e+02
388             	3.00622284e+02
389             	3.00622190e+02
390             	3.00623039e+02
391             	3.00623593e+02
392             	3.00624121e+02
393             	3.00624628e+02
394             	3.00625148e+02
395             	3.00625526e+02
396             	3.00625845e+02
397             	3.00626179e+02
398             	3.00626452e+02
399             	3.00627033e+02
400             	3.00627046e+02
401             	3.00627583e+02
402             	3.00627735e+02
403             	3.00628007e+02
404             	3.00628336e+02
405             	3.00628723e+02
406             	3.00629168e+02
407             	3.00629573e+02
408             	3.00629940e+02
409             	3.00630390e+02
410             	3.00630581e+02
411             	3.00631144e+02
412             	3.00631587e+02
413             	3.00631990e+02
414             	3.00632234e+02
415             	3.00632659e+02
416             	3.00633146e+02
417             	3.00633532e+02
418             	3.00633809e+02
419             	3.00634076e+02
420             	3.00634422e+02
421             	3.00634553e+02
422             	3.00634892e+02
423             	3.00635052e+02
424             	3.00635301e+02
425             	3.00635615e+02
426             	3.00635987e+02
427             	3.00636315e+02
428             	3.00636571e+02
429             	3.00636889e+02
430             	3.00637083e+02
431             	3.00637312e+02
432             	3.00637560e+02
433             	3.00637765e+02
434             	3.00637924e+02
435             	3.00638052e+02
436             	3.00638246e+02
437             	3.00638480e+02
438             	3.00638754e+02
439             	3.00639021e+02
440             	3.00639330e+02
441             	3.00639675e+02
442             	3.00640012e+02
443             	3.00640279e+02
444             	3.00640483e+02
445             	3.00640869e+02
446             	3.00641212e+02
447             	3.00641532e+02
448             	3.00641872e+02
449             	3.00642174e+02
450             	3.00642519e+02
451             	3.00642848e+02
452             	3.00643143e+02
453             	3.00643394e+02
454             	3.00643640e+02
455             	3.00643845e+02
456             	3.00644085e+02
457             	3.00644249e+02
458             	3.00644404e+02
459             	3.00644560e+02
460             	3.00644740e+02
461             	3.00644913e+02
462             	3.00645113e+02
463             	3.00645434e+02
464             	3.00645551e+02
465             	3.00645820e+02
466             	3.00646085e+02
467             	3.00646354e+02
468             	3.00646596e+02
469             	3.00646830e+02
470             	3.00647060e+02
471             	3.00647321e+02
472             	3.00647583e+02
473             	3.00647838e+02
474             	3.00648074e+02
475             	3.00648385e+02
476             	3.00648694e+02
477             	3.00648839e+02
478             	3.00649215e+02
479             	3.00649471e+02
480             	3.00649661e+02
481             	3.00649841e+02
482             	3.00650041e+02
483             	3.00650230e+02
484             	3.00650472e+02
485             	3.00650717e+02
486             	3.00650877e+02
487             	3.00651079e+02
488             	3.00651307e+02
489             	3.00651542e+02
490             	3.00651731e+02
491             	3.00651906e+02
492             	3.00652117e+02
493             	3.00652393e+02
494             	3.00652555e+02
495             	3.00652717e+02
496             	3.00652882e+02
497             	3.00653060e+02
498             	3.00653253e+02
499             	3.00653429e+02
500             	3.00653577e+02
501             	3.00653784e+02
502             	3.00653967e+02
503             	3.00654157e+02
504             	3.00654321e+02
505             	3.00654563e+02
506             	3.00654777e+02
507             	3.00655071e+02
508             	3.00655345e+02
509             	3.00655586e+02
510             	3.00655888e+02
511             	3.00656148e+02
512             	3.00656323e+02
513             	3.00656557e+02
514             	3.00656755e+02
515             	3.00656952e+02
516             	3.00657133e+02
517             	3.00657364e+02
518             	3.00657445e+02
519             	3.00657660e+02
520             	3.00657753e+02
521             	3.00657884e+02
522             	3.00658083e+02
523             	3.00658264e+02
524             	3.00658425e+02
525             	3.00658575e+02
526             	3.00658734e+02
527             	3.00658890e+02
528             	3.00659070e+02
529             	3.00659243e+02
530             	3.00659421e+02
531             	3.00659628e+02
532             	3.00659793e+02
533             	3.00659972e+02
534             	3.00660137e+02
535             	3.00660318e+02
536             	3.00660439e+02
537             	3.00660683e+02
538             	3.00660915e+02
539             	3.00661133e+02
540             	3.00661338e+02
541             	3.00661512e+02
542             	3.00661700e+02
543             	3.00661860e+02
544             	3.00662030e+02
545             	3.00662198e+02
546             	3.00662343e+02
547             	3.00662482e+02
548             	3.00662752e+02
549             	3.00662791e+02
550             	3.00662874e+02
551             	3.00663002e+02
552             	3.00663156e+02
553             	3.00663289e+02
554             	3.00663389e+02
555             	3.00663651e+02
556             	3.00663862e+02
557             	3.00664077e+02
558             	3.00664236e+02
559             	3.00664505e+02
560             	3.00664633e+02
561             	3.00664832e+02
562             	3.00664996e+02
563             	3.00665152e+02
564             	3.00665284e+02
565             	3.00665413e+02
566             	3.00665519e+02
567             	3.00665601e+02
568             	3.00665723e+02
569             	3.00665871e+02
570             	3.00666056e+02
571             	3.00666178e+02
572             	3.00666287e+02
573             	3.00666402e+02
574             	3.00666501e+02
575             	3.00666596e+02
576             	3.00666680e+02
577             	3.00666802e+02
578             	3.00666945e+02
579             	3.00667060e+02
580             	3.00667159e+02
581             	3.00667279e+02
582             	3.00667439e+02
583             	3.00667603e+02
584             	3.00667708e+02
585             	3.00667842e+02
586             	3.00668008e+02
587             	3.00668145e+02
588             	3.00668302e+02
589             	3.00668435e+02
590             	3.00668571e+02
591             	3.00668709e+02
592             	3.00668836e+02
593             	3.00668976e+02
594             	3.00669103e+02
595             	3.00669234e+02
596             	3.00669368e+02
597             	3.00669509e+02
598             	3.00669635e+02
599             	3.00669760e+02
600             	3.00669821e+02
601             	3.00670012e+02
602             	3.00670155e+02
603             	3.00670272e+02
604             	3.00670404e+02
605             	3.00670537e+02
606             	3.00670661e+02
607             	3.00670844e+02
608             	3.00670898e+02
609             	3.00670981e+02
610             	3.00671103e+02
611             	3.00671200e+02
612             	3.00671298e+02
613             	3.00671407e+02
614             	3.00671500e+02
615             	3.00671583e+02
616             	3.00671664e+02
617             	3.00671733e+02
618             	3.00671855e+02
619             	3.00671990e+02
620             	3.00672045e+02
621             	3.00672213e+02
622             	3.00672402e+02
623             	3.00672563e+02
624             	3.00672716e+02
625             	3.00672863e+02
626             	3.00673009e+02
627             	3.00673158e+02
628             	3.00673303e+02
629             	3.00673420e+02
630             	3.00673547e+02
631             	3.00673641e+02
632             	3.00673740e+02
633             	3.00673876e+02
634             	3.00673949e+02
635             	3.00674027e+02
636             	3.00674132e+02
637             	3.00674196e+02
638             	3.00674270e+02
639             	3.00674335e+02
640             	3.00674461e+02
641             	3.00674555e+02
642             	3.00674664e+02
643             	3.00674762e+02
644             	3.00674907e+02
645             	3.00675052e+02
646             	3.00675171e+02
647             	3.00675282e+02
648             	3.00675373e+02
649             	3.00675483e+02
650             	3.00675588e+02
651             	3.00675695e+02
652             	3.00675798e+02
653             	3.00675913e+02
654             	3.00676037e+02
655             	3.00676103e+02
656             	3.00676240e+02
657             	3.00676355e+02
658             	3.00676482e+02
659             	3.00676601e+02
660             	3.00676710e+02
661             	3.00676818e+02
662             	3.00676937e+02
663             	3.00677034e+02
664             	3.00677138e+02
665             	3.00677251e+02
666             	3.00677342e+02
667             	3.00677423e+02
668             	3.00677521e+02
669             	3.00677606e+02
670             	3.00677706e+02
671             	3.00677812e+02
672             	3.00677918e+02
673             	3.00678027e+02
674             	3.00678128e+02
675             	3.00678214e+02
676             	3.00678349e+02
677             	3.00678426e+02
678             	3.00678534e+02
679             	3.00678622e+02
680             	3.00678725e+02
681             	3.00678806e+02
682             	3.00678896e+02
683             	3.00678966e+02
684             	3.00679040e+02
685             	3.00679121e+02
686             	3.00679204e+02
687             	3.00679289e+02
688             	3.00679385e+02
689             	3.00679445e+02
690             	3.00679564e+02
691             	3.00679666e+02
692             	3.00679787e+02
693             	3.00679898e+02
694             	3.00680031e+02
695             	3.00680109e+02
696             	3.00680230e+02
697             	3.00680322e+02
698             	3.00680421e+02
699             	3.00680502e+02
700             	3.00680608e+02
701             	3.00680694e+02
702             	3.00680761e+02
703             	3.00680856e+02
704             	3.00680953e+02
705             	3.00681030e+02
706             	3.00681137e+02
707             	3.00681213e+02
708             	3.00681313e+02
709             	3.00681402e+02
710             	3.00681505e+02
711             	3.00681600e+02
712             	3.00681710e+02
713             	3.00681821e+02
714             	3.00681910e+02
715             	3.00682009e+02
716             	3.00682119e+02
717             	3.00682209e+02
718             	3.00682319e+02
719             	3.00682402e+02
720             	3.00682500e+02
721             	3.00682593e+02
722             	3.00682683e+02
723             	3.00682760e+02
724             	3.00682848e+02
725             	3.00682921e+02
726             	3.00683013e+02
727             	3.00683088e+02
728             	3.00683175e+02
729             	3.00683256e+02
730             	3.00683353e+02
731             	3.00683435e+02
732             	3.00683534e+02
733             	3.00683610e+02
734             	3.00683719e+02
735             	3.00683794e+02
736             	3.00683882e+02
737             	3.00683958e+02
738             	3.00684056e+02
739             	3.00684137e+02
740             	3.00684236e+02
741             	3.00684324e+02
742             	3.00684403e+02
743             	3.00684494e+02
744             	3.00684599e+02
745             	3.00684683e+02
746             	3.00684773e+02
747             	3.00684846e+02
748             	3.00684930e+02
749             	3.00684990e+02
750             	3.00685061e+02
751             	3.00685121e+02
752             	3.00685197e+02
753             	3.00685255e+02
754             	3.00685330e+02
755             	3.00685395e+02
756             	3.00685478e+02
757             	3.00685545e+02
758             	3.00685628e+02
759             	3.00685700e+02
760             	3.00685782e+02
761             	3.00685853e+02
762             	3.00685940e+02
763             	3.00686010e+02
764             	3.00686097e+02
765             	3.00686171e+02
766             	3.00686261e+02
767             	3.00686336e+02
768             	3.00686427e+02
769             	3.00686505e+02
770             	3.00686609e+02
771             	3.00686687e+02
772             	3.00686783e+02
773             	3.00686860e+02
774             	3.00686947e+02
775             	3.00687041e+02
776             	3.00687137e+02
777             	3.00687214e+02
778             	3.00687300e+02
779             	3.00687372e+02
780             	3.00687457e+02
781             	3.00687524e+02
782             	3.00687608e+02
783             	3.00687684e+02
784             	3.00687759e+02
785             	3.00687834e+02
786             	3.00687910e+02
787             	3.00687971e+02
788             	3.00688049e+02
789             	3.00688128e+02
790             	3.00688200e+02
791             	3.00688286e+02
792             	3.00688350e+02
793             	3.00688414e+02
794             	3.00688495e+02
795             	3.00688564e+02
796             	3.00688653e+02
797             	3.00688726e+02
798             	3.00688781e+02
799             	3.00688877e+02
800             	3.00688977e+02
801             	3.00689054e+02
802             	3.00689127e+02
803             	3.00689147e+02
804             	3.00689257e+02
805             	3.00689329e+02
806             	3.00689417e+02
807             	3.00689465e+02
808             	3.00689525e+02
809             	3.00689624e+02
810             	3.00689687e+02
811             	3.00689754e+02
812             	3.00689852e+02
813             	3.00689943e+02
814             	3.00690024e+02
815             	3.00690111e+02
816             	3.00690169e+02
817             	3.00690200e+02
818             	3.00690238e+02
819             	3.00690288e+02
820             	3.00690364e+02
821             	3.00690465e+02
822             	3.00690552e+02
823             	3.00690651e+02
824             	3.00690698e+02
825             	3.00690837e+02
826             	3.00690915e+02
827             	3.00690987e+02
828             	3.00691097e+02
829             	3.00691175e+02
830             	3.00691257e+02
831             	3.00691320e+02
832             	3.00691392e+02
833             	3.00691459e+02
834             	3.00691507e+02
835             	3.00691622e+02
836             	3.00691746e+02
837             	3.00691819e+02
838             	3.00691898e+02
839             	3.00691954e+02
840             	3.00692032e+02
841             	3.00692100e+02
842             	3.00692183e+02
843             	3.00692248e+02
844             	3.00692306e+02
845             	3.00692341e+02
846             	3.00692414e+02
847             	3.00692464e+02
848             	3.00692531e+02
849             	3.00692591e+02
850             	3.00692675e+02
851             	3.00692765e+02
852             	3.00692841e+02
853             	3.00692899e+02
854             	3.00693032e+02
855             	3.00693135e+02
856             	3.00693263e+02
857             	3.00693324e+02
858             	3.00693422e+02
859             	3.00693477e+02
860             	3.00693565e+02
861             	3.00693645e+02
862             	3.00693723e+02
863             	3.00693785e+02
864             	3.00693848e+02
865             	3.00693889e+02
866             	3.00693926e+02
867             	3.00693930e+02
868             	3.00693973e+02
869             	3.00694033e+02
870             	3.00694098e+02
871             	3.00694158e+02
872             	3.00694243e+02
873             	3.00694328e+02
874             	3.00694329e+02
875             	3.00694449e+02
876             	3.00694511e+02
877             	3.00694598e+02
878             	3.00694699e+02
879             	3.00694792e+02
880             	3.00694869e+02
881             	3.00694980e+02
882             	3.00695023e+02
883             	3.00695092e+02
884             	3.00695160e+02
885             	3.00695246e+02
886             	3.00695308e+02
887             	3.00695361e+02
888             	3.00695403e+02
889             	3.00695493e+02
890             	3.00695540e+02
891             	3.00695654e+02
892             	3.00695677e+02
893             	3.00695729e+02
894             	3.00695794e+02
895             	3.00695853e+02
896             	3.00695890e+02
897             	3.00695976e+02
898             	3.00696037e+02
899             	3.00696093e+02
900             	3.00696141e+02
901             	3.00696201e+02
902             	3.00696248e+02
903             	3.00696315e+02
904             	3.00696375e+02
905             	3.00696445e+02
906             	3.00696520e+02
907             	3.00696611e+02
908             	3.00696677e+02
909             	3.00696765e+02
910             	3.00696833e+02
911             	3.00696917e+02
912             	3.00696961e+02
913             	3.00697021e+02
914             	3.00697097e+02
915             	3.00697176e+02
916             	3.00697245e+02
917             	3.00697323e+02
918             	3.00697389e+02
919             	3.00697456e+02
920             	3.00697502e+02
921             	3.00697570e+02
922             	3.00697617e+02
923             	3.00697673e+02
924             	3.00697702e+02
925             	3.00697752e+02
926             	3.00697823e+02
927             	3.00697831e+02
928             	3.00697840e+02
929             	3.00697895e+02
930             	3.00697958e+02
931             	3.00698020e+02
932             	3.00698072e+02
933             	3.00698130e+02