# Region        : cellZone fluid
# Cells         : 8161
# Volume        : 1.52438805e+01
# Time          	volAverage(T)
1               	2.99999745e+02
2               	2.99999709e+02
3               	2.99999838e+02
4               	3.00000053e+02
5               	3.00000264e+02
6               	3.00000488e+02
7               	3.00000790e+02
8               	3.00001119e+02
9               	3.00001454e+02
10              	3.00001827e+02
11              	3.00002241e+02
12              	3.00002723e+02
13              	3.00003257e+02
14              	3.00003828e+02
15              	3.00004476e+02
16              	3.00005207e+02
17              	3.00005777e+02
18              	3.00006321e+02
19              	3.00007047e+02
20              	3.00007804e+02
21              	3.00008587e+02
22              	3.00009589e+02
23              	3.00010118e+02
24              	3.00010776e+02
25              	3.00011459e+02
26              	3.00012111e+02
27              	3.00012720e+02
28              	3.00013468e+02
29              	3.00014400e+02
30              	3.00015140e+02
31              	3.00015932e+02
32              	3.00017033e+02
33              	3.00018134e+02
34              	3.00019230e+02
35              	3.00020260e+02
36              	3.00021193e+02
37              	3.00022157e+02
38              	3.00023281e+02
39              	3.00024020e+02
40              	3.00024944e+02
41              	3.00025875e+02
42              	3.00026912e+02
43              	3.00027952e+02
44              	3.00029374e+02
45              	3.00030393e+02
46              	3.00031497e+02
47              	3.00032443e+02
48              	3.00033575e+02
49              	3.00034431e+02
50              	3.00035251e+02
51              	3.00036125e+02
52              	3.00036964e+02
53              	3.00037842e+02
54              	3.00038705e+02
55              	3.00039776e+02
56              	3.00040806e+02
57              	3.00041927e+02
58              	3.00042685e+02
59              	3.00043490e+02
60              	3.00044621e+02
61              	3.00045635e+02
62              	3.00046555e+02
63              	3.00047480e+02
64              	3.00048326e+02
65              	3.00049263e+02
66              	3.00050311e+02
67              	3.00051370e+02
68              	3.00052268e+02
69              	3.00053215e+02
70              	3.00054112e+02
71              	3.00055129e+02
72              	3.00056082e+02
73              	3.00056705e+02
74              	3.00057524e+02
75              	3.00058617e+02
76              	3.00059622e+02
77              	3.00060573e+02
78              	3.00061310e+02
79              	3.00062127e+02
80              	3.00062998e+02
81              	3.00064145e+02
82              	3.00064836e+02
83              	3.00065537e+02
84              	3.00066219e+02
85              	3.00066743e+02
86              	3.00067348e+02
87              	3.00068072e+02
88              	3.00069019e+02
89              	3.00069865e+02
90              	3.00070574e+02
91              	3.00071359e+02
92              	3.00072154e+02
93              	3.00073037e+02
94              	3.00073777e+02
95              	3.00074480e+02
96              	3.00075534e+02
97              	3.00076588e+02
98              	3.00077546e+02
99              	3.00078435e+02
100             	3.00079108e+02
101             	3.00080018e+02
102             	3.00080983e+02
103             	3.00081486e+02
104             	3.00082032e+02
105             	3.00082669e+02
106             	3.00083381e+02
107             	3.00084152e+02
108             	3.00084870e+02
109             	3.00085667e+02
110             	3.00086291e+02
111             	3.00087108e+02
112             	3.00088066e+02
113             	3.00089032e+02
114             	3.00089965e+02
115             	3.00090816e+02
116             	3.00091644e+02
117             	3.00092428e+02
118             	3.00093125e+02
119             	3.00093792e+02
120             	3.00094471e+02
121             	3.00095115e+02
122             	3.00095882e+02
123             	3.00096704e+02
124             	3.00097588e+02
125             	3.00098268e+02
126             	3.00099048e+02
127             	3.00099762e+02
128             	3.00100413e+02
129             	3.00100960e+02
130             	3.00101509e+02
131             	3.00102226e+02
132             	3.00103099e+02
133             	3.00103755e+02
134             	3.00104393e+02
135             	3.00104981e+02
136             	3.00105570e+02
137             	3.00106030e+02
138             	3.00106498e+02
139             	3.00106956e+02
140             	3.00107370e+02
141             	3.00108118e+02
142             	3.00108647e+02
143             	3.00109266e+02
144             	3.00109858e+02
145             	3.00110509e+02
146             	3.00111209e+02
147             	3.00111800e+02
148             	3.00112379e+02
149             	3.00112969e+02
150             	3.00113730e+02
151             	3.00114487e+02
152             	3.00115182e+02
153             	3.00115758e+02
154             	3.00116339e+02
155             	3.00117165e+02
156             	3.00118359e+02
157             	3.00118767e+02
158             	3.00119319e+02
159             	3.00119965e+02
160             	3.00120654e+02
161             	3.00121352e+02
162             	3.00121820e+02
163             	3.00122530e+02
164             	3.00122747e+02
165             	3.00123303e+02
166             	3.00123716e+02
167             	3.00123988e+02
168             	3.00124154e+02
169             	3.00124338e+02
170             	3.00124582e+02
171             	3.00124932e+02
172             	3.00125160e+02
173             	3.00125216e+02
174             	3.00125369e+02
175             	3.00125571e+02
176             	3.00125709e+02
177             	3.00125848e+02
178             	3.00125786e+02
179             	3.00125876e+02
180             	3.00126018e+02
181             	3.00126062e+02
182             	3.00126174e+02
183             	3.00126254e+02
184             	3.00126262e+02
185             	3.00126266e+02
186             	3.00126275e+02
187             	3.00126430e+02
188             	3.00126458e+02
189             	3.00126386e+02
190             	3.00126452e+02
191             	3.00126566e+02
192             	3.00126747e+02
193             	3.00126964e+02
194             	3.00126995e+02
195             	3.00127208e+02
196             	3.00127508e+02
197             	3.00127752e+02
198             	3.00127956e+02
199             	3.00128106e+02
200             	3.00128242e+02
201             	3.00128350e+02
202             	3.00128403e+02
203             	3.00128423e+02
204             	3.00128460e+02
205             	3.00128508e+02
206             	3.00128575e+02
207             	3.00128651e+02
208             	3.00128935e+02
209             	3.00129013e+02
210             	3.00129128e+02
211             	3.00129300e+02
212             	3.00129499e+02
213             	3.00129689e+02
214             	3.00129880e+02
215             	3.00129865e+02
216             	3.00129925e+02
217             	3.00130127e+02
218             	3.00130282e+02
219             	3.00130371e+02
220             	3.00130405e+02
221             	3.00130443e+02
222             	3.00130536e+02
223             	3.00130777e+02
224             	3.00130757e+02
225             	3.00130834e+02
226             	3.00130960e+02
227             	3.00131116e+02
228             	3.00131292e+02
229             	3.00131513e+02
230             	3.00131711e+02
231             	3.00131929e+02
232             	3.00132187e+02
233             	3.00132275e+02
234             	3.00132373e+02
235             	3.00132675e+02
236             	3.00132917e+02
237             	3.00133087e+02
238             	3.00133180e+02
239             	3.00133249e+02
240             	3.00133419e+02
241             	3.00133676e+02
242             	3.00133969e+02
243             	3.00134096e+02
244             	3.00134315e+02
245             	3.00134608e+02
246             	3.00134931e+02
247             	3.00135210e+02
248             	3.00135609e+02
249             	3.00135934e+02
250             	3.00136090e+02
251             	3.00136446e+02
252             	3.00136662e+02
253             	3.00136950e+02
254             	3.00137190e+02
255             	3.00137386e+02
256             	3.00137531e+02
257             	3.00137664e+02
258             	3.00137821e+02
259             	3.00137970e+02
260             	3.00138109e+02
261             	3.00138241e+02
262             	3.00138520e+02
263             	3.00138557e+02
264             	3.00138810e+02
265             	3.00138959e+02
266             	3.00139225e+02
267             	3.00139465e+02
268             	3.00139653e+02
269             	3.00139705e+02
270             	3.00139845e+02
271             	3.00140022e+02
272             	3.00140183e+02
273             	3.00140282e+02
274             	3.00140379e+02
275             	3.00140388e+02
276             	3.00141045e+02
277             	3.00141038e+02
278             	3.00141084e+02
279             	3.00141183e+02
280             	3.00141335e+02
281             	3.00141465e+02
282             	3.00141693e+02
283             	3.00141652e+02
284             	3.00141731e+02
285             	3.00141950e+02
286             	3.00142139e+02
287             	3.00142259e+02
288             	3.00142307e+02
289             	3.00142597e+02
290             	3.00142645e+02
291             	3.00142721e+02
292             	3.00142729e+02
293             	3.00142833e+02
294             	3.00142997e+02
295             	3.00143208e+02
296             	3.00143259e+02
297             	3.00143441e+02
298             	3.00143705e+02
299             	3.00143924e+02
300             	3.00144101e+02
301             	3.00144272e+02
302             	3.00144424e+02
303             	3.00144550e+02
304             	3.00144622e+02
305             	3.00144670e+02
306             	3.00144710e+02
307             	3.00144752e+02
308             	3.00144775e+02
309             	3.00144849e+02
310             	3.00144901e+02
311             	3.00144993e+02
312             	3.00145083e+02
313             	3.00145157e+02
314             	3.00145216e+02
315             	3.00145245e+02
316             	3.00145276e+02
317             	3.00145306e+02
318             	3.00145367e+02
319             	3.00145423e+02
320             	3.00145476e+02
321             	3.00145552e+02
322             	3.00145632e+02
323             	3.00145690e+02
324             	3.00145758e+02
325             	3.00145855e+02
326             	3.00145974e+02
327             	3.00146072e+02
328             	3.00146191e+02
329             	3.00146300e+02
330             	3.00146397e+02
331             	3.00146514e+02
332             	3.00146613e+02
333             	3.00146701e+02
334             	3.00146791e+02
335             	3.00146887e+02
336             	3.00146981e+02
337             	3.00147066e+02
338             	3.00147142e+02
339             	3.00147208e+02
340             	3.00147282e+02
341             	3.00147357e+02
342             	3.00147411e+02
343             	3.00147467e+02
344             	3.00147549e+02
345             	3.00147624e+02
346             	3.00147693e+02
347             	3.00147759e+02
348             	3.00147820e+02
349             	3.00147874e+02
350             	3.00147924e+02
351             	3.00147962e+02
352             	3.00147990e+02
353             	3.00148016e+02
354             	3.00148045e+02
355             	3.00148073e+02
356             	3.00148104e+02
357             	3.00148169e+02
358             	3.00148195e+02
359             	3.00148229e+02
360             	3.00148272e+02
361             	3.00148318e+02
362             	3.00148365e+02
363             	3.00148416e+02
364             	3.00148468e+02
365             	3.00148524e+02
366             	3.00148581e+02
367             	3.00148639e+02
368             	3.00148695e+02
369             	3.00148740e+02
370             	3.00148761e+02
371             	3.00148788e+02
372             	3.00148840e+02
373             	3.00148873e+02
374             	3.00148896e+02
375             	3.00148921e+02
376             	3.00148945e+02
377             	3.00148955e+02
378             	3.00148978e+02
379             	3.00148994e+02
380             	3.00149022e+02
381             	3.00149067e+02
382             	3.00149119e+02
383             	3.00149147e+02
384             	3.00149189e+02
385             	3.00149242e+02
386             	3.00149308e+02
387             	3.00149379e+02
388             	3.00149443e+02
389             	3.00149495e+02
390             	3.00149536e+02
391             	3.00149580e+02
392             	3.00149642e+02
393             	3.00149688e+02
394             	3.00149728e+02
395             	3.00149754e+02
396             	3.00149821e+02
397             	3.00149891e+02
398             	3.00149923e+02
399             	3.00149973e+02
400             	3.00149994e+02
401             	3.00150048e+02
402             	3.00150108e+02
403             	3.00150127e+02
404             	3.00150153e+02
405             	3.00150195e+02
406             	3.00150250e+02
407             	3.00150288e+02
408             	3.00150321e+02
409             	3.00150353e+02
410             	3.00150369e+02
411             	3.00150385e+02
412             	3.00150400e+02
413             	3.00150415e+02
414             	3.00150452e+02
415             	3.00150454e+02
416             	3.00150470e+02
417             	3.00150492e+02
418             	3.00150532e+02
419             	3.00150577e+02
420             	3.00150623e+02
421             	3.00150674e+02
422             	3.00150726e+02
423             	3.00150780e+02
424             	3.00150830e+02
425             	3.00150878e+02
426             	3.00150926e+02
427             	3.00150971e+02
428             	3.00151013e+02
429             	3.00151055e+02
430             	3.00151067e+02
431             	3.00151110e+02
432             	3.00151149e+02
433             	3.00151179e+02
434             	3.00151202e+02
435             	3.00151222e+02
436             	3.00151242e+02
437             	3.00151255e+02
438             	3.00151267e+02
439             	3.00151277e+02
440             	3.00151287e+02
441             	3.00151294e+02
442             	3.00151309e+02
443             	3.00151329e+02
444             	3.00151333e+02
445             	3.00151341e+02
446             	3.00151360e+02
447             	3.00151382e+02
448             	3.00151408e+02
449             	3.00151433e+02
450             	3.00151458e+02
451             	3.00151482e+02
452             	3.00151499e+02
453             	3.00151498e+02
454             	3.00151542e+02
455             	3.00151568e+02
456             	3.00151595e+02
457             	3.00151615e+02
458             	3.00151629e+02
459             	3.00151670e+02
460             	3.00151683e+02
461             	3.00151695e+02
462             	3.00151699e+02
463             	3.00151717e+02
464             	3.00151744e+02
465             	3.00151775e+02
466             	3.00151805e+02
467             	3.00151836e+02
468             	3.00151876e+02
469             	3.00151902e+02
470             	3.00151907e+02
471             	3.00151950e+02
472             	3.00151989e+02
473             	3.00152019e+02
474             	3.00152040e+02
475             	3.00152051e+02
476             	3.00152088e+02
477             	3.00152120e+02
478             	3.00152128e+02
479             	3.00152147e+02
480             	3.00152173e+02
481             	3.00152204e+02
482             	3.00152238e+02
483             	3.00152272e+02
484             	3.00152307e+02
485             	3.00152325e+02
486             	3.00152360e+02
487             	3.00152368e+02
488             	3.00152399e+02
489             	3.00152422e+02
490             	3.00152437e+02
491             	3.00152445e+02
492             	3.00152449e+02
493             	3.00152455e+02
494             	3.00152457e+02
495             	3.00152469e+02
496             	3.00152484e+02
497             	3.00152499e+02
498             	3.00152501e+02
499             	3.00152509e+02
500             	3.00152523e+02
501             	3.00152542e+02
502             	3.00152564e+02
503             	3.00152586e+02
504             	3.00152602e+02
505             	3.00152620e+02
506             	3.00152644e+02
507             	3.00152642e+02
508             	3.00152668e+02
509             	3.00152685e+02
510             	3.00152697e+02
511             	3.00152707e+02
512             	3.00152715e+02
513             	3.00152727e+02
514             	3.00152734e+02
515             	3.00152763e+02
516             	3.00152766e+02
517             	3.00152789e+02
518             	3.00152799e+02
519             	3.00152819e+02
520             	3.00152840e+02
521             	3.00152857e+02
522             	3.00152872e+02
523             	3.00152875e+02
524             	3.00152888e+02
525             	3.00152907e+02
526             	3.00152921e+02
527             	3.00152932e+02
528             	3.00152942e+02
529             	3.00152947e+02
530             	3.00152949e+02
531             	3.00152948e+02
532             	3.00152956e+02
533             	3.00152952e+02
534             	3.00152952e+02
535             	3.00152961e+02
536             	3.00152960e+02
537             	3.00152962e+02
538             	3.00152969e+02
539             	3.00152979e+02
540             	3.00152990e+02
541             	3.00152999e+02
542             	3.00153004e+02
543             	3.00153019e+02
544             	3.00153030e+02
545             	3.00153037e+02
546             	3.00153050e+02
547             	3.00153064e+02
548             	3.00153077e+02
549             	3.00153089e+02
550             	3.00153101e+02
551             	3.00153113e+02
552             	3.00153124e+02
553             	3.00153135e+02
554             	3.00153145e+02
555             	3.00153154e+02
556             	3.00153166e+02
557             	3.00153176e+02
558             	3.00153189e+02
559             	3.00153208e+02
560             	3.00153215e+02
561             	3.00153228e+02
562             	3.00153245e+02
563             	3.00153257e+02
564             	3.00153270e+02
565             	3.00153271e+02
566             	3.00153290e+02
567             	3.00153301e+02
568             	3.00153310e+02
569             	3.00153315e+02
570             	3.00153319e+02
571             	3.00153325e+02
572             	3.00153330e+02
573             	3.00153335e+02
574             	3.00153340e+02
575             	3.00153343e+02
576             	3.00153347e+02
577             	3.00153351e+02
578             	3.00153354e+02
579             	3.00153358e+02
580             	3.00153363e+02
581             	3.00153369e+02
582             	3.00153374e+02
583             	3.00153381e+02
584             	3.00153388e+02
585             	3.00153396e+02
586             	3.00153404e+02
587             	3.00153416e+02
588             	3.00153421e+02
589             	3.00153432e+02
590             	3.00153440e+02
591             	3.00153448e+02
592             	3.00153454e+02
593             	3.00153459e+02
594             	3.00153465e+02
595             	3.00153470e+02
596             	3.00153474e+02
597             	3.00153482e+02
598             	3.00153491e+02
599             	3.00153494e+02
600             	3.00153499e+02
601             	3.00153506e+02
602             	3.00153514e+02
603             	3.00153521e+02
604             	3.00153529e+02
605             	3.00153537e+02
606             	3.00153545e+02
607             	3.00153551e+02
608             	3.00153560e+02
609             	3.00153568e+02
610             	3.00153571e+02
611             	3.00153579e+02
612             	3.00153585e+02
613             	3.00153590e+02
614             	3.00153593e+02
615             	3.00153598e+02
616             	3.00153600e+02
617             	3.00153604e+02
618             	3.00153606e+02
619             	3.00153609e+02
620             	3.00153612e+02
621             	3.00153616e+02
622             	3.00153619e+02
623             	3.00153622e+02
624             	3.00153626e+02
625             	3.00153630e+02
626             	3.00153635e+02
627             	3.00153640e+02
628             	3.00153646e+02
629             	3.00153651e+02
630             	3.00153656e+02
631             	3.00153662e+02
632             	3.00153668e+02
633             	3.00153674e+02
634             	3.00153680e+02
635             	3.00153686e+02
636             	3.00153692e+02
637             	3.00153699e+02
638             	3.00153705e+02
639             	3.00153711e+02
640             	3.00153717e+02
641             	3.00153723e+02
642             	3.00153728e+02
643             	3.00153733e+02
644             	3.00153738e+02
645             	3.00153742e+02
646             	3.00153747e+02
647             	3.00153751e+02
648             	3.00153755e+02
649             	3.00153759e+02
650             	3.00153763e+02
651             	3.00153766e+02
652             	3.00153770e+02
653             	3.00153773e+02
654             	3.00153776e+02
655             	3.00153779e+02
656             	3.00153782e+02
657             	3.00153785e+02
658             	3.00153788e+02
659             	3.00153791e+02
660             	3.00153794e+02
661             	3.00153797e+02
662             	3.00153799e+02
663             	3.00153802e+02
664             	3.00153805e+02
665             	3.00153807e+02
666             	3.00153810e+02
667             	3.00153813e+02
668             	3.00153816e+02
669             	3.00153819e+02
670             	3.00153822e+02
671             	3.00153825e+02
672             	3.00153828e+02
673             	3.00153831e+02
674             	3.00153835e+02
675             	3.00153839e+02
676             	3.00153842e+02
677             	3.00153846e+02
678             	3.00153849e+02
679             	3.00153853e+02
680             	3.00153857e+02
681             	3.00153861e+02
682             	3.00153865e+02
683             	3.00153869e+02
684             	3.00153872e+02
685             	3.00153876e+02
686             	3.00153880e+02
687             	3.00153883e+02
688             	3.00153887e+02
689             	3.00153890e+02
690             	3.00153893e+02
691             	3.00153896e+02
692             	3.00153899e+02
693             	3.00153902e+02
694             	3.00153905e+02
695             	3.00153908e+02
696             	3.00153910e+02
697             	3.00153912e+02
698             	3.00153914e+02
699             	3.00153916e+02
700             	3.00153917e+02
701             	3.00153919e+02
702             	3.00153921e+02
703             	3.00153923e+02
704             	3.00153925e+02
705             	3.00153927e+02
706             	3.00153929e+02
707             	3.00153930e+02
708             	3.00153932e+02
709             	3.00153934e+02
710             	3.00153936e+02
711             	3.00153937e+02
712             	3.00153939e+02
713             	3.00153941e+02
714             	3.00153942e+02
715             	3.00153944e+02
716             	3.00153946e+02
717             	3.00153948e+02
718             	3.00153950e+02
719             	3.00153952e+02
720             	3.00153954e+02
721             	3.00153956e+02
722             	3.00153959e+02
723             	3.00153961e+02
724             	3.00153963e+02
725             	3.00153966e+02
726             	3.00153968e+02
727             	3.00153971e+02
728             	3.00153974e+02
729             	3.00153976e+02
730             	3.00153979e+02
731             	3.00153982e+02
732             	3.00153984e+02
733             	3.00153986e+02
734             	3.00153988e+02
735             	3.00153991e+02
736             	3.00153993e+02
737             	3.00153995e+02
738             	3.00153998e+02
739             	3.00154000e+02
740             	3.00154002e+02
741             	3.00154004e+02
742             	3.00154005e+02
743             	3.00154007e+02
744             	3.00154009e+02
745             	3.00154010e+02
746             	3.00154012e+02
747             	3.00154013e+02
748             	3.00154014e+02
749             	3.00154016e+02
750             	3.00154017e+02
751             	3.00154018e+02
752             	3.00154020e+02
753             	3.00154021e+02
754             	3.00154022e+02
755             	3.00154023e+02
756             	3.00154025e+02
757             	3.00154026e+02
758             	3.00154028e+02
759             	3.00154029e+02
760             	3.00154031e+02
761             	3.00154032e+02
762             	3.00154034e+02
763             	3.00154036e+02
764             	3.00154037e+02
765             	3.00154039e+02
766             	3.00154040e+02
767             	3.00154042e+02
768             	3.00154043e+02
769             	3.00154045e+02
770             	3.00154046e+02
771             	3.00154047e+02
772             	3.00154048e+02
773             	3.00154050e+02
774             	3.00154051e+02
775             	3.00154052e+02
776             	3.00154053e+02
777             	3.00154054e+02
778             	3.00154055e+02
779             	3.00154056e+02
780             	3.00154057e+02
781             	3.00154059e+02
782             	3.00154060e+02
783             	3.00154061e+02
784             	3.00154062e+02
785             	3.00154064e+02
786             	3.00154065e+02
787             	3.00154066e+02
788             	3.00154068e+02
789             	3.00154069e+02
790             	3.00154070e+02
791             	3.00154071e+02
792             	3.00154073e+02
793             	3.00154074e+02
794             	3.00154075e+02
795             	3.00154077e+02
796             	3.00154078e+02
797             	3.00154079e+02
798             	3.00154080e+02
799             	3.00154081e+02
800             	3.00154083e+02
801             	3.00154084e+02
802             	3.00154085e+02
803             	3.00154086e+02
804             	3.00154087e+02
805             	3.00154088e+02
806             	3.00154089e+02
807             	3.00154090e+02
808             	3.00154091e+02
809             	3.00154092e+02
810             	3.00154093e+02
811             	3.00154094e+02
812             	3.00154095e+02
813             	3.00154096e+02
814             	3.00154097e+02
815             	3.00154098e+02
816             	3.00154099e+02
817             	3.00154100e+02
818             	3.00154101e+02
819             	3.00154102e+02
820             	3.00154102e+02
821             	3.00154103e+02
822             	3.00154104e+02
823             	3.00154105e+02
824             	3.00154105e+02
825             	3.00154106e+02
826             	3.00154107e+02
827             	3.00154108e+02
828             	3.00154109e+02
829             	3.00154109e+02
830             	3.00154110e+02
831             	3.00154111e+02
832             	3.00154112e+02
833             	3.00154113e+02
834             	3.00154114e+02
835             	3.00154114e+02
836             	3.00154115e+02
837             	3.00154116e+02
838             	3.00154117e+02
839             	3.00154118e+02
840             	3.00154119e+02
841             	3.00154119e+02
842             	3.00154120e+02
843             	3.00154121e+02
844             	3.00154122e+02
845             	3.00154123e+02
846             	3.00154124e+02
847             	3.00154125e+02
848             	3.00154126e+02
849             	3.00154127e+02
850             	3.00154127e+02
851             	3.00154128e+02
852             	3.00154129e+02
853             	3.00154130e+02
854             	3.00154131e+02
855             	3.00154132e+02
856             	3.00154132e+02
857             	3.00154133e+02
858             	3.00154134e+02
859             	3.00154135e+02
860             	3.00154135e+02
861             	3.00154136e+02
862             	3.00154137e+02
863             	3.00154137e+02
864             	3.00154138e+02
865             	3.00154139e+02
866             	3.00154139e+02
867             	3.00154140e+02
868             	3.00154140e+02
869             	3.00154141e+02
870             	3.00154141e+02
871             	3.00154142e+02
872             	3.00154143e+02
873             	3.00154143e+02
874             	3.00154144e+02
875             	3.00154145e+02
876             	3.00154145e+02
877             	3.00154146e+02
878             	3.00154147e+02
879             	3.00154147e+02
880             	3.00154148e+02
881             	3.00154148e+02
882             	3.00154149e+02
883             	3.00154150e+02
884             	3.00154150e+02
885             	3.00154151e+02
886             	3.00154152e+02
887             	3.00154152e+02
888             	3.00154153e+02
889             	3.00154153e+02
890             	3.00154154e+02
891             	3.00154154e+02
892             	3.00154155e+02
893             	3.00154155e+02
894             	3.00154156e+02
895             	3.00154156e+02
896             	3.00154156e+02
897             	3.00154157e+02
898             	3.00154157e+02
899             	3.00154157e+02
900             	3.00154158e+02
901             	3.00154158e+02
902             	3.00154158e+02
903             	3.00154158e+02
904             	3.00154159e+02
905             	3.00154159e+02
906             	3.00154159e+02
907             	3.00154159e+02
908             	3.00154159e+02
909             	3.00154159e+02
910             	3.00154159e+02
911             	3.00154159e+02
912             	3.00154160e+02
913             	3.00154160e+02
914             	3.00154160e+02
915             	3.00154160e+02
916             	3.00154160e+02
917             	3.00154160e+02
918             	3.00154160e+02
919             	3.00154161e+02
920             	3.00154161e+02
921             	3.00154161e+02
922             	3.00154161e+02
923             	3.00154161e+02
924             	3.00154161e+02
925             	3.00154161e+02
926             	3.00154161e+02
927             	3.00154162e+02
928             	3.00154162e+02
929             	3.00154162e+02
930             	3.00154162e+02
931             	3.00154162e+02
932             	3.00154162e+02
933             	3.00154162e+02