# Region        : cellZone component_3
# Cells         : 149
# Volume        : 2.79581570e-01
# Time          	volAverage(T)
1               	3.00662657e+02
2               	3.01308441e+02
3               	3.01855766e+02
4               	3.02342290e+02
5               	3.02808819e+02
6               	3.03266445e+02
7               	3.03713261e+02
8               	3.04149255e+02
9               	3.04579752e+02
10              	3.05006937e+02
11              	3.05417048e+02
12              	3.05815352e+02
13              	3.06208644e+02
14              	3.06602272e+02
15              	3.06999388e+02
16              	3.07388697e+02
17              	3.07758037e+02
18              	3.08100064e+02
19              	3.08416161e+02
20              	3.08726779e+02
21              	3.09033431e+02
22              	3.09345379e+02
23              	3.09634811e+02
24              	3.09900599e+02
25              	3.10150729e+02
26              	3.10387258e+02
27              	3.10624841e+02
28              	3.10860399e+02
29              	3.11101538e+02
30              	3.11346128e+02
31              	3.11570323e+02
32              	3.11740194e+02
33              	3.11852307e+02
34              	3.11970093e+02
35              	3.12119888e+02
36              	3.12270835e+02
37              	3.12415853e+02
38              	3.12563545e+02
39              	3.12716577e+02
40              	3.12867820e+02
41              	3.13012983e+02
42              	3.13149405e+02
43              	3.13286589e+02
44              	3.13426919e+02
45              	3.13578673e+02
46              	3.13751596e+02
47              	3.13948256e+02
48              	3.14126007e+02
49              	3.14275481e+02
50              	3.14393012e+02
51              	3.14484984e+02
52              	3.14550203e+02
53              	3.14604219e+02
54              	3.14651005e+02
55              	3.14700783e+02
56              	3.14772068e+02
57              	3.14845075e+02
58              	3.14910239e+02
59              	3.14967674e+02
60              	3.15020584e+02
61              	3.15081240e+02
62              	3.15166469e+02
63              	3.15293405e+02
64              	3.15445591e+02
65              	3.15558864e+02
66              	3.15633258e+02
67              	3.15667698e+02
68              	3.15672686e+02
69              	3.15676697e+02
70              	3.15717799e+02
71              	3.15734913e+02
72              	3.15747532e+02
73              	3.15765244e+02
74              	3.15788060e+02
75              	3.15822680e+02
76              	3.15872225e+02
77              	3.15943427e+02
78              	3.16040628e+02
79              	3.16146968e+02
80              	3.16239746e+02
81              	3.16303856e+02
82              	3.16336608e+02
83              	3.16352554e+02
84              	3.16387345e+02
85              	3.16421436e+02
86              	3.16436517e+02
87              	3.16445109e+02
88              	3.16450973e+02
89              	3.16459987e+02
90              	3.16474234e+02
91              	3.16493067e+02
92              	3.16523070e+02
93              	3.16573963e+02
94              	3.16654038e+02
95              	3.16740343e+02
96              	3.16765763e+02
97              	3.16747870e+02
98              	3.16731959e+02
99              	3.16732653e+02
100             	3.16752474e+02
101             	3.16770674e+02
102             	3.16767712e+02
103             	3.16754323e+02
104             	3.16739868e+02
105             	3.16732845e+02
106             	3.16745636e+02
107             	3.16780242e+02
108             	3.16833340e+02
109             	3.16902252e+02
110             	3.16976528e+02
111             	3.17042058e+02
112             	3.17102362e+02
113             	3.17153348e+02
114             	3.17194255e+02
115             	3.17227516e+02
116             	3.17250849e+02
117             	3.17268543e+02
118             	3.17283677e+02
119             	3.17298041e+02
120             	3.17312665e+02
121             	3.17327376e+02
122             	3.17341408e+02
123             	3.17357950e+02
124             	3.17377433e+02
125             	3.17398708e+02
126             	3.17423171e+02
127             	3.17450770e+02
128             	3.17479705e+02
129             	3.17509064e+02
130             	3.17540993e+02
131             	3.17576983e+02
132             	3.17616033e+02
133             	3.17661323e+02
134             	3.17710723e+02
135             	3.17765273e+02
136             	3.17819454e+02
137             	3.17871504e+02
138             	3.17917888e+02
139             	3.17956810e+02
140             	3.17987702e+02
141             	3.18011913e+02
142             	3.18029781e+02
143             	3.18042812e+02
144             	3.18053828e+02
145             	3.18064918e+02
146             	3.18077532e+02
147             	3.18092629e+02
148             	3.18110151e+02
149             	3.18129805e+02
150             	3.18149662e+02
151             	3.18167490e+02
152             	3.18186013e+02
153             	3.18203620e+02
154             	3.18222023e+02
155             	3.18242515e+02
156             	3.18264086e+02
157             	3.18291442e+02
158             	3.18325439e+02
159             	3.18364534e+02
160             	3.18402493e+02
161             	3.18439372e+02
162             	3.18473345e+02
163             	3.18502725e+02
164             	3.18526643e+02
165             	3.18546952e+02
166             	3.18564013e+02
167             	3.18577181e+02
168             	3.18588870e+02
169             	3.18600348e+02
170             	3.18612881e+02
171             	3.18626838e+02
172             	3.18641636e+02
173             	3.18658332e+02
174             	3.18676251e+02
175             	3.18693922e+02
176             	3.18711221e+02
177             	3.18729505e+02
178             	3.18746244e+02
179             	3.18762602e+02
180             	3.18780091e+02
181             	3.18798158e+02
182             	3.18817316e+02
183             	3.18837281e+02
184             	3.18856136e+02
185             	3.18875516e+02
186             	3.18894619e+02
187             	3.18910932e+02
188             	3.18925050e+02
189             	3.18937782e+02
190             	3.18948459e+02
191             	3.18957433e+02
192             	3.18964930e+02
193             	3.18970607e+02
194             	3.18975605e+02
195             	3.18980512e+02
196             	3.18985873e+02
197             	3.18991928e+02
198             	3.18998717e+02
199             	3.19006090e+02
200             	3.19014626e+02
201             	3.19023782e+02
202             	3.19032773e+02
203             	3.19042414e+02
204             	3.19052665e+02
205             	3.19062542e+02
206             	3.19072202e+02
207             	3.19081924e+02
208             	3.19091614e+02
209             	3.19099589e+02
210             	3.19107534e+02
211             	3.19114848e+02
212             	3.19121267e+02
213             	3.19127089e+02
214             	3.19132620e+02
215             	3.19138139e+02
216             	3.19143057e+02
217             	3.19148160e+02
218             	3.19153533e+02
219             	3.19158895e+02
220             	3.19164250e+02
221             	3.19169396e+02
222             	3.19174436e+02
223             	3.19179716e+02
224             	3.19185501e+02
225             	3.19191619e+02
226             	3.19198103e+02
227             	3.19204628e+02
228             	3.19211344e+02
229             	3.19218176e+02
230             	3.19225030e+02
231             	3.19232014e+02
232             	3.19238911e+02
233             	3.19245492e+02
234             	3.19251735e+02
235             	3.19257188e+02
236             	3.19261894e+02
237             	3.19266492e+02
238             	3.19270523e+02
239             	3.19274006e+02
240             	3.19276754e+02
241             	3.19279202e+02
242             	3.19281535e+02
243             	3.19283806e+02
244             	3.19286491e+02
245             	3.19289246e+02
246             	3.19292354e+02
247             	3.19295997e+02
248             	3.19300188e+02
249             	3.19304791e+02
250             	3.19309634e+02
251             	3.19314421e+02
252             	3.19319157e+02
253             	3.19323673e+02
254             	3.19327829e+02
255             	3.19331619e+02
256             	3.19335097e+02
257             	3.19338320e+02
258             	3.19341492e+02
259             	3.19344633e+02
260             	3.19347692e+02
261             	3.19350885e+02
262             	3.19353962e+02
263             	3.19356961e+02
264             	3.19359968e+02
265             	3.19362737e+02
266             	3.19365209e+02
267             	3.19367466e+02
268             	3.19369580e+02
269             	3.19371711e+02
270             	3.19373745e+02
271             	3.19375813e+02
272             	3.19377974e+02
273             	3.19380205e+02
274             	3.19382550e+02
275             	3.19385127e+02
276             	3.19387834e+02
277             	3.19390713e+02
278             	3.19393826e+02
279             	3.19397157e+02
280             	3.19400609e+02
281             	3.19404124e+02
282             	3.19407714e+02
283             	3.19411333e+02
284             	3.19414982e+02
285             	3.19418596e+02
286             	3.19422254e+02
287             	3.19425858e+02
288             	3.19429375e+02
289             	3.19432862e+02
290             	3.19436341e+02
291             	3.19439849e+02
292             	3.19443362e+02
293             	3.19446923e+02
294             	3.19450496e+02
295             	3.19454100e+02
296             	3.19457721e+02
297             	3.19461246e+02
298             	3.19464660e+02
299             	3.19467888e+02
300             	3.19470940e+02
301             	3.19473870e+02
302             	3.19476702e+02
303             	3.19479691e+02
304             	3.19482796e+02
305             	3.19486018e+02
306             	3.19489396e+02
307             	3.19492897e+02
308             	3.19496485e+02
309             	3.19500060e+02
310             	3.19503517e+02
311             	3.19506940e+02
312             	3.19510292e+02
313             	3.19513566e+02
314             	3.19516787e+02
315             	3.19520004e+02
316             	3.19523280e+02
317             	3.19526614e+02
318             	3.19530028e+02
319             	3.19533600e+02
320             	3.19537263e+02
321             	3.19540996e+02
322             	3.19544774e+02
323             	3.19548640e+02
324             	3.19552510e+02
325             	3.19556334e+02
326             	3.19560118e+02
327             	3.19563868e+02
328             	3.19567593e+02
329             	3.19571306e+02
330             	3.19574983e+02
331             	3.19578641e+02
332             	3.19582284e+02
333             	3.19585916e+02
334             	3.19589533e+02
335             	3.19593123e+02
336             	3.19596653e+02
337             	3.19600100e+02
338             	3.19603524e+02
339             	3.19606863e+02
340             	3.19610102e+02
341             	3.19613277e+02
342             	3.19616440e+02
343             	3.19619581e+02
344             	3.19622705e+02
345             	3.19625831e+02
346             	3.19628966e+02
347             	3.19632179e+02
348             	3.19635397e+02
349             	3.19638664e+02
350             	3.19641992e+02
351             	3.19645359e+02
352             	3.19648753e+02
353             	3.19652155e+02
354             	3.19655542e+02
355             	3.19658912e+02
356             	3.19662255e+02
357             	3.19665559e+02
358             	3.19668806e+02
359             	3.19672002e+02
360             	3.19675111e+02
361             	3.19678181e+02
362             	3.19681174e+02
363             	3.19684078e+02
364             	3.19686906e+02
365             	3.19689701e+02
366             	3.19692470e+02
367             	3.19695204e+02
368             	3.19697921e+02
369             	3.19700638e+02
370             	3.19703351e+02
371             	3.19706075e+02
372             	3.19708785e+02
373             	3.19711507e+02
374             	3.19714209e+02
375             	3.19716904e+02
376             	3.19719573e+02
377             	3.19722219e+02
378             	3.19724859e+02
379             	3.19727476e+02
380             	3.19730097e+02
381             	3.19732701e+02
382             	3.19735283e+02
383             	3.19737873e+02
384             	3.19740453e+02
385             	3.19743012e+02
386             	3.19745546e+02
387             	3.19748045e+02
388             	3.19750506e+02
389             	3.19752933e+02
390             	3.19755320e+02
391             	3.19757667e+02
392             	3.19759983e+02
393             	3.19762245e+02
394             	3.19764482e+02
395             	3.19766681e+02
396             	3.19768834e+02
397             	3.19770957e+02
398             	3.19773049e+02
399             	3.19775119e+02
400             	3.19777173e+02
401             	3.19779217e+02
402             	3.19781259e+02
403             	3.19783296e+02
404             	3.19785317e+02
405             	3.19787330e+02
406             	3.19789337e+02
407             	3.19791329e+02
408             	3.19793313e+02
409             	3.19795268e+02
410             	3.19797216e+02
411             	3.19799147e+02
412             	3.19801056e+02
413             	3.19802946e+02
414             	3.19804818e+02
415             	3.19806676e+02
416             	3.19808505e+02
417             	3.19810315e+02
418             	3.19812105e+02
419             	3.19813880e+02
420             	3.19815645e+02
421             	3.19817403e+02
422             	3.19819151e+02
423             	3.19820889e+02
424             	3.19822615e+02
425             	3.19824333e+02
426             	3.19826038e+02
427             	3.19827718e+02
428             	3.19829383e+02
429             	3.19831032e+02
430             	3.19832666e+02
431             	3.19834278e+02
432             	3.19835876e+02
433             	3.19837467e+02
434             	3.19839045e+02
435             	3.19840607e+02
436             	3.19842151e+02
437             	3.19843677e+02
438             	3.19845182e+02
439             	3.19846666e+02
440             	3.19848130e+02
441             	3.19849573e+02
442             	3.19850993e+02
443             	3.19852394e+02
444             	3.19853780e+02
445             	3.19855149e+02
446             	3.19856503e+02
447             	3.19857843e+02
448             	3.19859170e+02
449             	3.19860481e+02
450             	3.19861780e+02
451             	3.19863063e+02
452             	3.19864335e+02
453             	3.19865597e+02
454             	3.19866848e+02
455             	3.19868091e+02
456             	3.19869321e+02
457             	3.19870542e+02
458             	3.19871754e+02
459             	3.19872948e+02
460             	3.19874135e+02
461             	3.19875306e+02
462             	3.19876459e+02
463             	3.19877593e+02
464             	3.19878712e+02
465             	3.19879818e+02
466             	3.19880913e+02
467             	3.19881997e+02
468             	3.19883073e+02
469             	3.19884140e+02
470             	3.19885201e+02
471             	3.19886251e+02
472             	3.19887292e+02
473             	3.19888325e+02
474             	3.19889347e+02
475             	3.19890357e+02
476             	3.19891356e+02
477             	3.19892342e+02
478             	3.19893316e+02
479             	3.19894279e+02
480             	3.19895233e+02
481             	3.19896179e+02
482             	3.19897117e+02
483             	3.19898047e+02
484             	3.19898971e+02
485             	3.19899888e+02
486             	3.19900798e+02
487             	3.19901701e+02
488             	3.19902597e+02
489             	3.19903485e+02
490             	3.19904366e+02
491             	3.19905240e+02
492             	3.19906106e+02
493             	3.19906965e+02
494             	3.19907818e+02
495             	3.19908665e+02
496             	3.19909501e+02
497             	3.19910332e+02
498             	3.19911157e+02
499             	3.19911974e+02
500             	3.19912783e+02
501             	3.19913583e+02
502             	3.19914376e+02
503             	3.19915161e+02
504             	3.19915940e+02
505             	3.19916712e+02
506             	3.19917478e+02
507             	3.19918239e+02
508             	3.19918996e+02
509             	3.19919748e+02
510             	3.19920494e+02
511             	3.19921237e+02
512             	3.19921975e+02
513             	3.19922709e+02
514             	3.19923440e+02
515             	3.19924166e+02
516             	3.19924887e+02
517             	3.19925605e+02
518             	3.19926319e+02
519             	3.19927027e+02
520             	3.19927730e+02
521             	3.19928429e+02
522             	3.19929118e+02
523             	3.19929804e+02
524             	3.19930486e+02
525             	3.19931160e+02
526             	3.19931828e+02
527             	3.19932489e+02
528             	3.19933146e+02
529             	3.19933801e+02
530             	3.19934454e+02
531             	3.19935103e+02
532             	3.19935749e+02
533             	3.19936395e+02
534             	3.19937039e+02
535             	3.19937682e+02
536             	3.19938322e+02
537             	3.19938960e+02
538             	3.19939594e+02
539             	3.19940224e+02
540             	3.19940849e+02
541             	3.19941469e+02
542             	3.19942085e+02
543             	3.19942694e+02
544             	3.19943297e+02
545             	3.19943894e+02
546             	3.19944485e+02
547             	3.19945068e+02
548             	3.19945647e+02
549             	3.19946220e+02
550             	3.19946788e+02
551             	3.19947348e+02
552             	3.19947902e+02
553             	3.19948450e+02
554             	3.19948994e+02
555             	3.19949532e+02
556             	3.19950066e+02
557             	3.19950592e+02
558             	3.19951113e+02
559             	3.19951628e+02
560             	3.19952139e+02
561             	3.19952645e+02
562             	3.19953147e+02
563             	3.19953644e+02
564             	3.19954136e+02
565             	3.19954624e+02
566             	3.19955107e+02
567             	3.19955586e+02
568             	3.19956060e+02
569             	3.19956529e+02
570             	3.19956994e+02
571             	3.19957453e+02
572             	3.19957907e+02
573             	3.19958356e+02
574             	3.19958799e+02
575             	3.19959236e+02
576             	3.19959667e+02
577             	3.19960087e+02
578             	3.19960505e+02
579             	3.19960916e+02
580             	3.19961318e+02
581             	3.19961712e+02
582             	3.19962100e+02
583             	3.19962490e+02
584             	3.19962872e+02
585             	3.19963251e+02
586             	3.19963630e+02
587             	3.19964008e+02
588             	3.19964387e+02
589             	3.19964765e+02
590             	3.19965142e+02
591             	3.19965519e+02
592             	3.19965894e+02
593             	3.19966267e+02
594             	3.19966639e+02
595             	3.19967008e+02
596             	3.19967374e+02
597             	3.19967737e+02
598             	3.19968097e+02
599             	3.19968455e+02
600             	3.19968809e+02
601             	3.19969162e+02
602             	3.19969511e+02
603             	3.19969858e+02
604             	3.19970202e+02
605             	3.19970544e+02
606             	3.19970883e+02
607             	3.19971220e+02
608             	3.19971553e+02
609             	3.19971884e+02
610             	3.19972211e+02
611             	3.19972535e+02
612             	3.19972854e+02
613             	3.19973168e+02
614             	3.19973478e+02
615             	3.19973784e+02
616             	3.19974085e+02
617             	3.19974381e+02
618             	3.19974672e+02
619             	3.19974960e+02
620             	3.19975242e+02
621             	3.19975520e+02
622             	3.19975794e+02
623             	3.19976063e+02
624             	3.19976329e+02
625             	3.19976590e+02
626             	3.19976846e+02
627             	3.19977099e+02
628             	3.19977347e+02
629             	3.19977589e+02
630             	3.19977829e+02
631             	3.19978064e+02
632             	3.19978295e+02
633             	3.19978523e+02
634             	3.19978749e+02
635             	3.19978972e+02
636             	3.19979193e+02
637             	3.19979411e+02
638             	3.19979628e+02
639             	3.19979842e+02
640             	3.19980054e+02
641             	3.19980264e+02
642             	3.19980471e+02
643             	3.19980675e+02
644             	3.19980877e+02
645             	3.19981075e+02
646             	3.19981271e+02
647             	3.19981464e+02
648             	3.19981655e+02
649             	3.19981844e+02
650             	3.19982030e+02
651             	3.19982216e+02
652             	3.19982400e+02
653             	3.19982583e+02
654             	3.19982765e+02
655             	3.19982945e+02
656             	3.19983125e+02
657             	3.19983304e+02
658             	3.19983481e+02
659             	3.19983658e+02
660             	3.19983835e+02
661             	3.19984013e+02
662             	3.19984190e+02
663             	3.19984368e+02
664             	3.19984547e+02
665             	3.19984726e+02
666             	3.19984906e+02
667             	3.19985086e+02
668             	3.19985275e+02
669             	3.19985462e+02
670             	3.19985652e+02
671             	3.19985848e+02
672             	3.19986050e+02
673             	3.19986248e+02
674             	3.19986453e+02
675             	3.19986651e+02
676             	3.19986848e+02
677             	3.19987039e+02
678             	3.19987223e+02
679             	3.19987401e+02
680             	3.19987577e+02
681             	3.19987756e+02
682             	3.19987928e+02
683             	3.19988100e+02
684             	3.19988275e+02
685             	3.19988453e+02
686             	3.19988636e+02
687             	3.19988823e+02
688             	3.19989013e+02
689             	3.19989205e+02
690             	3.19989397e+02
691             	3.19989591e+02
692             	3.19989785e+02
693             	3.19989964e+02
694             	3.19990144e+02
695             	3.19990319e+02
696             	3.19990483e+02
697             	3.19990637e+02
698             	3.19990786e+02
699             	3.19990934e+02
700             	3.19991085e+02
701             	3.19991242e+02
702             	3.19991401e+02
703             	3.19991565e+02
704             	3.19991750e+02
705             	3.19991937e+02
706             	3.19992130e+02
707             	3.19992339e+02
708             	3.19992557e+02
709             	3.19992781e+02
710             	3.19993004e+02
711             	3.19993228e+02
712             	3.19993451e+02
713             	3.19993670e+02
714             	3.19993882e+02
715             	3.19994091e+02
716             	3.19994296e+02
717             	3.19994502e+02
718             	3.19994702e+02
719             	3.19994887e+02
720             	3.19995072e+02
721             	3.19995249e+02
722             	3.19995411e+02
723             	3.19995559e+02
724             	3.19995701e+02
725             	3.19995836e+02
726             	3.19995964e+02
727             	3.19996088e+02
728             	3.19996209e+02
729             	3.19996329e+02
730             	3.19996453e+02
731             	3.19996576e+02
732             	3.19996701e+02
733             	3.19996829e+02
734             	3.19996960e+02
735             	3.19997092e+02
736             	3.19997227e+02
737             	3.19997361e+02
738             	3.19997498e+02
739             	3.19997634e+02
740             	3.19997771e+02
741             	3.19997911e+02
742             	3.19998050e+02
743             	3.19998187e+02
744             	3.19998324e+02
745             	3.19998461e+02
746             	3.19998596e+02
747             	3.19998731e+02
748             	3.19998864e+02
749             	3.19998996e+02
750             	3.19999126e+02
751             	3.19999254e+02
752             	3.19999380e+02
753             	3.19999499e+02
754             	3.19999619e+02
755             	3.19999734e+02
756             	3.19999846e+02
757             	3.19999953e+02
758             	3.20000057e+02
759             	3.20000157e+02
760             	3.20000253e+02
761             	3.20000349e+02
762             	3.20000440e+02
763             	3.20000529e+02
764             	3.20000616e+02
765             	3.20000703e+02
766             	3.20000788e+02
767             	3.20000872e+02
768             	3.20000957e+02
769             	3.20001040e+02
770             	3.20001124e+02
771             	3.20001209e+02
772             	3.20001293e+02
773             	3.20001373e+02
774             	3.20001443e+02
775             	3.20001510e+02
776             	3.20001570e+02
777             	3.20001623e+02
778             	3.20001669e+02
779             	3.20001715e+02
780             	3.20001758e+02
781             	3.20001804e+02
782             	3.20001849e+02
783             	3.20001893e+02
784             	3.20001939e+02
785             	3.20001986e+02
786             	3.20002031e+02
787             	3.20002070e+02
788             	3.20002108e+02
789             	3.20002142e+02
790             	3.20002170e+02
791             	3.20002193e+02
792             	3.20002212e+02
793             	3.20002219e+02
794             	3.20002225e+02
795             	3.20002224e+02
796             	3.20002214e+02
797             	3.20002196e+02
798             	3.20002174e+02
799             	3.20002149e+02
800             	3.20002124e+02
801             	3.20002101e+02
802             	3.20002086e+02
803             	3.20002074e+02
804             	3.20002068e+02
805             	3.20002070e+02
806             	3.20002099e+02
807             	3.20002127e+02
808             	3.20002169e+02
809             	3.20002226e+02
810             	3.20002296e+02
811             	3.20002377e+02
812             	3.20002458e+02
813             	3.20002532e+02
814             	3.20002598e+02
815             	3.20002659e+02
816             	3.20002708e+02
817             	3.20002746e+02
818             	3.20002776e+02
819             	3.20002805e+02
820             	3.20002833e+02
821             	3.20002858e+02
822             	3.20002886e+02
823             	3.20002917e+02
824             	3.20002941e+02
825             	3.20002966e+02
826             	3.20002984e+02
827             	3.20002994e+02
828             	3.20002995e+02
829             	3.20002987e+02
830             	3.20002973e+02
831             	3.20002956e+02
832             	3.20002939e+02
833             	3.20002920e+02
834             	3.20002904e+02
835             	3.20002892e+02
836             	3.20002885e+02
837             	3.20002881e+02
838             	3.20002883e+02
839             	3.20002891e+02
840             	3.20002905e+02
841             	3.20002922e+02
842             	3.20002940e+02
843             	3.20002958e+02
844             	3.20002973e+02
845             	3.20002981e+02
846             	3.20002990e+02
847             	3.20002997e+02
848             	3.20003000e+02
849             	3.20003002e+02
850             	3.20003004e+02
851             	3.20003007e+02
852             	3.20003011e+02
853             	3.20003016e+02
854             	3.20003033e+02
855             	3.20003049e+02
856             	3.20003068e+02
857             	3.20003095e+02
858             	3.20003130e+02
859             	3.20003172e+02
860             	3.20003216e+02
861             	3.20003263e+02
862             	3.20003312e+02
863             	3.20003361e+02
864             	3.20003410e+02
865             	3.20003459e+02
866             	3.20003510e+02
867             	3.20003557e+02
868             	3.20003602e+02
869             	3.20003645e+02
870             	3.20003686e+02
871             	3.20003726e+02
872             	3.20003766e+02
873             	3.20003805e+02
874             	3.20003842e+02
875             	3.20003878e+02
876             	3.20003907e+02
877             	3.20003935e+02
878             	3.20003960e+02
879             	3.20003978e+02
880             	3.20003993e+02
881             	3.20003996e+02
882             	3.20003998e+02
883             	3.20003997e+02
884             	3.20003991e+02
885             	3.20003979e+02
886             	3.20003963e+02
887             	3.20003944e+02
888             	3.20003926e+02
889             	3.20003907e+02
890             	3.20003893e+02
891             	3.20003882e+02
892             	3.20003876e+02
893             	3.20003877e+02
894             	3.20003887e+02
895             	3.20003903e+02
896             	3.20003924e+02
897             	3.20003953e+02
898             	3.20003986e+02
899             	3.20004024e+02
900             	3.20004072e+02
901             	3.20004121e+02
902             	3.20004176e+02
903             	3.20004240e+02
904             	3.20004309e+02
905             	3.20004381e+02
906             	3.20004454e+02
907             	3.20004526e+02
908             	3.20004594e+02
909             	3.20004661e+02
910             	3.20004724e+02
911             	3.20004780e+02
912             	3.20004828e+02
913             	3.20004872e+02
914             	3.20004910e+02
915             	3.20004942e+02
916             	3.20004970e+02
917             	3.20004993e+02
918             	3.20005013e+02
919             	3.20005037e+02
920             	3.20005057e+02
921             	3.20005075e+02
922             	3.20005095e+02
923             	3.20005115e+02
924             	3.20005136e+02
925             	3.20005140e+02
926             	3.20005148e+02
927             	3.20005150e+02
928             	3.20005143e+02
929             	3.20005130e+02
930             	3.20005109e+02
931             	3.20005092e+02
932             	3.20005073e+02
933             	3.20005056e+02