# Region        : cellZone fluid
# Cells         : 9629
# Volume        : 1.80541256e+01
# Time          	volAverage(T)
1               	3.00000116e+02
2               	3.00000220e+02
3               	3.00000914e+02
4               	3.00001840e+02
5               	3.00002376e+02
6               	3.00003098e+02
7               	3.00003665e+02
8               	3.00005318e+02
9               	3.00006200e+02
10              	3.00006991e+02
11              	3.00007969e+02
12              	3.00009238e+02
13              	3.00010464e+02
14              	3.00011985e+02
15              	3.00013304e+02
16              	3.00015245e+02
17              	3.00016859e+02
18              	3.00018883e+02
19              	3.00020434e+02
20              	3.00021867e+02
21              	3.00022950e+02
22              	3.00025127e+02
23              	3.00025961e+02
24              	3.00027796e+02
25              	3.00029550e+02
26              	3.00031525e+02
27              	3.00033734e+02
28              	3.00035963e+02
29              	3.00037685e+02
30              	3.00039530e+02
31              	3.00040375e+02
32              	3.00041808e+02
33              	3.00044109e+02
34              	3.00045646e+02
35              	3.00048033e+02
36              	3.00050238e+02
37              	3.00051783e+02
38              	3.00053503e+02
39              	3.00055855e+02
40              	3.00058423e+02
41              	3.00060254e+02
42              	3.00062465e+02
43              	3.00064711e+02
44              	3.00065863e+02
45              	3.00068571e+02
46              	3.00071240e+02
47              	3.00074020e+02
48              	3.00076542e+02
49              	3.00078676e+02
50              	3.00079571e+02
51              	3.00081957e+02
52              	3.00084851e+02
53              	3.00086712e+02
54              	3.00088767e+02
55              	3.00091070e+02
56              	3.00093506e+02
57              	3.00096265e+02
58              	3.00098724e+02
59              	3.00100481e+02
60              	3.00102235e+02
61              	3.00105488e+02
62              	3.00107346e+02
63              	3.00108230e+02
64              	3.00110036e+02
65              	3.00111677e+02
66              	3.00114033e+02
67              	3.00116390e+02
68              	3.00118326e+02
69              	3.00120696e+02
70              	3.00123111e+02
71              	3.00126155e+02
72              	3.00129184e+02
73              	3.00131150e+02
74              	3.00132820e+02
75              	3.00133729e+02
76              	3.00136320e+02
77              	3.00137516e+02
78              	3.00139282e+02
79              	3.00140984e+02
80              	3.00143760e+02
81              	3.00146033e+02
82              	3.00147417e+02
83              	3.00150032e+02
84              	3.00152581e+02
85              	3.00154703e+02
86              	3.00156880e+02
87              	3.00159055e+02
88              	3.00161248e+02
89              	3.00162548e+02
90              	3.00163969e+02
91              	3.00166152e+02
92              	3.00168177e+02
93              	3.00170410e+02
94              	3.00171893e+02
95              	3.00172726e+02
96              	3.00173544e+02
97              	3.00175231e+02
98              	3.00177747e+02
99              	3.00178663e+02
100             	3.00180014e+02
101             	3.00181974e+02
102             	3.00183531e+02
103             	3.00185145e+02
104             	3.00186928e+02
105             	3.00187670e+02
106             	3.00189796e+02
107             	3.00191553e+02
108             	3.00192979e+02
109             	3.00194203e+02
110             	3.00195153e+02
111             	3.00195996e+02
112             	3.00196525e+02
113             	3.00197145e+02
114             	3.00198543e+02
115             	3.00200456e+02
116             	3.00201269e+02
117             	3.00202419e+02
118             	3.00204001e+02
119             	3.00205542e+02
120             	3.00207355e+02
121             	3.00208550e+02
122             	3.00209622e+02
123             	3.00211295e+02
124             	3.00213219e+02
125             	3.00214638e+02
126             	3.00215937e+02
127             	3.00217201e+02
128             	3.00218227e+02
129             	3.00218993e+02
130             	3.00220078e+02
131             	3.00221210e+02
132             	3.00221842e+02
133             	3.00222547e+02
134             	3.00223345e+02
135             	3.00224239e+02
136             	3.00225087e+02
137             	3.00225757e+02
138             	3.00227211e+02
139             	3.00228558e+02
140             	3.00229682e+02
141             	3.00230567e+02
142             	3.00231412e+02
143             	3.00232409e+02
144             	3.00233398e+02
145             	3.00234192e+02
146             	3.00234689e+02
147             	3.00235091e+02
148             	3.00236071e+02
149             	3.00236640e+02
150             	3.00237282e+02
151             	3.00238210e+02
152             	3.00239069e+02
153             	3.00240235e+02
154             	3.00240228e+02
155             	3.00241102e+02
156             	3.00241610e+02
157             	3.00242455e+02
158             	3.00243503e+02
159             	3.00244635e+02
160             	3.00245502e+02
161             	3.00245887e+02
162             	3.00246294e+02
163             	3.00247304e+02
164             	3.00247830e+02
165             	3.00248579e+02
166             	3.00249290e+02
167             	3.00249697e+02
168             	3.00250125e+02
169             	3.00250956e+02
170             	3.00251734e+02
171             	3.00252452e+02
172             	3.00253164e+02
173             	3.00253798e+02
174             	3.00254176e+02
175             	3.00254533e+02
176             	3.00254974e+02
177             	3.00254951e+02
178             	3.00255226e+02
179             	3.00255278e+02
180             	3.00255606e+02
181             	3.00255911e+02
182             	3.00256083e+02
183             	3.00256350e+02
184             	3.00256704e+02
185             	3.00257161e+02
186             	3.00257624e+02
187             	3.00258114e+02
188             	3.00258607e+02
189             	3.00259153e+02
190             	3.00259100e+02
191             	3.00259484e+02
192             	3.00259892e+02
193             	3.00260153e+02
194             	3.00260439e+02
195             	3.00260594e+02
196             	3.00260826e+02
197             	3.00261020e+02
198             	3.00261170e+02
199             	3.00261327e+02
200             	3.00262331e+02
201             	3.00262495e+02
202             	3.00262813e+02
203             	3.00263245e+02
204             	3.00263822e+02
205             	3.00264471e+02
206             	3.00264808e+02
207             	3.00264709e+02
208             	3.00265233e+02
209             	3.00265506e+02
210             	3.00265791e+02
211             	3.00266140e+02
212             	3.00266377e+02
213             	3.00267091e+02
214             	3.00267160e+02
215             	3.00267401e+02
216             	3.00267672e+02
217             	3.00267621e+02
218             	3.00267746e+02
219             	3.00267785e+02
220             	3.00267909e+02
221             	3.00267897e+02
222             	3.00268020e+02
223             	3.00268633e+02
224             	3.00269216e+02
225             	3.00269287e+02
226             	3.00269416e+02
227             	3.00269275e+02
228             	3.00269395e+02
229             	3.00269744e+02
230             	3.00269763e+02
231             	3.00270007e+02
232             	3.00270150e+02
233             	3.00270548e+02
234             	3.00271018e+02
235             	3.00271211e+02
236             	3.00271183e+02
237             	3.00271298e+02
238             	3.00271441e+02
239             	3.00271563e+02
240             	3.00271629e+02
241             	3.00271864e+02
242             	3.00272135e+02
243             	3.00272401e+02
244             	3.00272569e+02
245             	3.00272677e+02
246             	3.00272830e+02
247             	3.00272904e+02
248             	3.00272961e+02
249             	3.00273199e+02
250             	3.00273353e+02
251             	3.00273374e+02
252             	3.00273451e+02
253             	3.00273562e+02
254             	3.00273642e+02
255             	3.00273730e+02
256             	3.00273831e+02
257             	3.00273937e+02
258             	3.00274066e+02
259             	3.00274242e+02
260             	3.00274479e+02
261             	3.00274490e+02
262             	3.00274777e+02
263             	3.00274910e+02
264             	3.00275096e+02
265             	3.00275265e+02
266             	3.00275391e+02
267             	3.00275485e+02
268             	3.00275586e+02
269             	3.00275719e+02
270             	3.00275722e+02
271             	3.00275754e+02
272             	3.00275844e+02
273             	3.00275996e+02
274             	3.00276100e+02
275             	3.00276239e+02
276             	3.00276402e+02
277             	3.00276553e+02
278             	3.00276746e+02
279             	3.00276932e+02
280             	3.00277140e+02
281             	3.00277329e+02
282             	3.00277466e+02
283             	3.00277577e+02
284             	3.00277630e+02
285             	3.00277670e+02
286             	3.00277810e+02
287             	3.00277904e+02
288             	3.00277941e+02
289             	3.00277997e+02
290             	3.00278117e+02
291             	3.00278201e+02
292             	3.00278207e+02
293             	3.00278344e+02
294             	3.00278351e+02
295             	3.00278424e+02
296             	3.00278589e+02
297             	3.00278750e+02
298             	3.00278865e+02
299             	3.00278985e+02
300             	3.00279139e+02
301             	3.00279339e+02
302             	3.00279437e+02
303             	3.00279564e+02
304             	3.00279651e+02
305             	3.00279730e+02
306             	3.00279776e+02
307             	3.00279862e+02
308             	3.00279885e+02
309             	3.00280015e+02
310             	3.00280021e+02
311             	3.00280108e+02
312             	3.00280157e+02
313             	3.00280246e+02
314             	3.00280347e+02
315             	3.00280362e+02
316             	3.00280558e+02
317             	3.00280722e+02
318             	3.00280766e+02
319             	3.00280819e+02
320             	3.00280905e+02
321             	3.00280964e+02
322             	3.00280982e+02
323             	3.00281144e+02
324             	3.00281055e+02
325             	3.00281012e+02
326             	3.00281043e+02
327             	3.00281079e+02
328             	3.00281136e+02
329             	3.00281175e+02
330             	3.00281245e+02
331             	3.00281388e+02
332             	3.00281491e+02
333             	3.00281577e+02
334             	3.00281671e+02
335             	3.00281774e+02
336             	3.00281867e+02
337             	3.00281925e+02
338             	3.00281926e+02
339             	3.00281983e+02
340             	3.00281940e+02
341             	3.00281975e+02
342             	3.00282015e+02
343             	3.00282030e+02
344             	3.00282063e+02
345             	3.00282110e+02
346             	3.00282170e+02
347             	3.00282240e+02
348             	3.00282321e+02
349             	3.00282396e+02
350             	3.00282457e+02
351             	3.00282471e+02
352             	3.00282571e+02
353             	3.00282642e+02
354             	3.00282679e+02
355             	3.00282694e+02
356             	3.00282699e+02
357             	3.00282710e+02
358             	3.00282733e+02
359             	3.00282747e+02
360             	3.00282776e+02
361             	3.00282821e+02
362             	3.00282855e+02
363             	3.00282894e+02
364             	3.00282938e+02
365             	3.00282990e+02
366             	3.00283047e+02
367             	3.00283103e+02
368             	3.00283159e+02
369             	3.00283213e+02
370             	3.00283260e+02
371             	3.00283299e+02
372             	3.00283343e+02
373             	3.00283381e+02
374             	3.00283429e+02
375             	3.00283469e+02
376             	3.00283510e+02
377             	3.00283537e+02
378             	3.00283580e+02
379             	3.00283614e+02
380             	3.00283649e+02
381             	3.00283678e+02
382             	3.00283698e+02
383             	3.00283719e+02
384             	3.00283736e+02
385             	3.00283757e+02
386             	3.00283771e+02
387             	3.00283787e+02
388             	3.00283806e+02
389             	3.00283832e+02
390             	3.00283839e+02
391             	3.00283854e+02
392             	3.00283868e+02
393             	3.00283893e+02
394             	3.00283913e+02
395             	3.00283934e+02
396             	3.00283956e+02
397             	3.00283987e+02
398             	3.00283999e+02
399             	3.00284034e+02
400             	3.00284051e+02
401             	3.00284079e+02
402             	3.00284102e+02
403             	3.00284126e+02
404             	3.00284152e+02
405             	3.00284180e+02
406             	3.00284188e+02
407             	3.00284202e+02
408             	3.00284222e+02
409             	3.00284242e+02
410             	3.00284261e+02
411             	3.00284280e+02
412             	3.00284303e+02
413             	3.00284324e+02
414             	3.00284345e+02
415             	3.00284353e+02
416             	3.00284373e+02
417             	3.00284389e+02
418             	3.00284406e+02
419             	3.00284425e+02
420             	3.00284437e+02
421             	3.00284449e+02
422             	3.00284463e+02
423             	3.00284472e+02
424             	3.00284486e+02
425             	3.00284503e+02
426             	3.00284511e+02
427             	3.00284526e+02
428             	3.00284544e+02
429             	3.00284564e+02
430             	3.00284583e+02
431             	3.00284601e+02
432             	3.00284616e+02
433             	3.00284631e+02
434             	3.00284650e+02
435             	3.00284662e+02
436             	3.00284670e+02
437             	3.00284674e+02
438             	3.00284681e+02
439             	3.00284691e+02
440             	3.00284704e+02
441             	3.00284714e+02
442             	3.00284721e+02
443             	3.00284736e+02
444             	3.00284757e+02
445             	3.00284782e+02
446             	3.00284803e+02
447             	3.00284821e+02
448             	3.00284839e+02
449             	3.00284850e+02
450             	3.00284865e+02
451             	3.00284879e+02
452             	3.00284892e+02
453             	3.00284903e+02
454             	3.00284913e+02
455             	3.00284922e+02
456             	3.00284926e+02
457             	3.00284932e+02
458             	3.00284933e+02
459             	3.00284948e+02
460             	3.00284949e+02
461             	3.00284956e+02
462             	3.00284963e+02
463             	3.00284971e+02
464             	3.00284981e+02
465             	3.00284993e+02
466             	3.00284998e+02
467             	3.00285015e+02
468             	3.00285025e+02
469             	3.00285035e+02
470             	3.00285047e+02
471             	3.00285060e+02
472             	3.00285067e+02
473             	3.00285078e+02
474             	3.00285085e+02
475             	3.00285088e+02
476             	3.00285091e+02
477             	3.00285103e+02
478             	3.00285104e+02
479             	3.00285106e+02
480             	3.00285114e+02
481             	3.00285120e+02
482             	3.00285130e+02
483             	3.00285139e+02
484             	3.00285148e+02
485             	3.00285160e+02
486             	3.00285169e+02
487             	3.00285175e+02
488             	3.00285181e+02
489             	3.00285189e+02
490             	3.00285195e+02
491             	3.00285201e+02
492             	3.00285208e+02
493             	3.00285214e+02
494             	3.00285220e+02
495             	3.00285227e+02
496             	3.00285231e+02
497             	3.00285238e+02
498             	3.00285245e+02
499             	3.00285252e+02
500             	3.00285260e+02
501             	3.00285267e+02
502             	3.00285270e+02
503             	3.00285273e+02
504             	3.00285275e+02
505             	3.00285277e+02
506             	3.00285279e+02
507             	3.00285283e+02
508             	3.00285291e+02
509             	3.00285295e+02
510             	3.00285301e+02
511             	3.00285307e+02
512             	3.00285314e+02
513             	3.00285321e+02
514             	3.00285327e+02
515             	3.00285335e+02
516             	3.00285336e+02
517             	3.00285344e+02
518             	3.00285351e+02
519             	3.00285357e+02
520             	3.00285360e+02
521             	3.00285364e+02
522             	3.00285368e+02
523             	3.00285370e+02
524             	3.00285373e+02
525             	3.00285377e+02
526             	3.00285378e+02
527             	3.00285381e+02
528             	3.00285383e+02
529             	3.00285386e+02
530             	3.00285389e+02
531             	3.00285391e+02
532             	3.00285392e+02
533             	3.00285395e+02
534             	3.00285398e+02
535             	3.00285400e+02
536             	3.00285404e+02
537             	3.00285408e+02
538             	3.00285413e+02
539             	3.00285419e+02
540             	3.00285424e+02
541             	3.00285427e+02
542             	3.00285431e+02
543             	3.00285437e+02
544             	3.00285441e+02
545             	3.00285444e+02
546             	3.00285447e+02
547             	3.00285449e+02
548             	3.00285450e+02
549             	3.00285453e+02
550             	3.00285453e+02
551             	3.00285455e+02
552             	3.00285459e+02
553             	3.00285460e+02
554             	3.00285463e+02
555             	3.00285467e+02
556             	3.00285470e+02
557             	3.00285474e+02
558             	3.00285477e+02
559             	3.00285481e+02
560             	3.00285481e+02
561             	3.00285485e+02
562             	3.00285488e+02
563             	3.00285490e+02
564             	3.00285490e+02
565             	3.00285491e+02
566             	3.00285492e+02
567             	3.00285493e+02
568             	3.00285494e+02
569             	3.00285495e+02
570             	3.00285497e+02
571             	3.00285499e+02
572             	3.00285499e+02
573             	3.00285501e+02
574             	3.00285502e+02
575             	3.00285505e+02
576             	3.00285508e+02
577             	3.00285510e+02
578             	3.00285513e+02
579             	3.00285518e+02
580             	3.00285519e+02
581             	3.00285523e+02
582             	3.00285526e+02
583             	3.00285528e+02
584             	3.00285529e+02
585             	3.00285531e+02
586             	3.00285531e+02
587             	3.00285532e+02
588             	3.00285534e+02
589             	3.00285534e+02
590             	3.00285535e+02
591             	3.00285537e+02
592             	3.00285537e+02
593             	3.00285538e+02
594             	3.00285539e+02
595             	3.00285541e+02
596             	3.00285542e+02
597             	3.00285545e+02
598             	3.00285545e+02
599             	3.00285547e+02
600             	3.00285549e+02
601             	3.00285549e+02
602             	3.00285551e+02
603             	3.00285553e+02
604             	3.00285554e+02
605             	3.00285554e+02
606             	3.00285556e+02
607             	3.00285557e+02
608             	3.00285559e+02
609             	3.00285560e+02
610             	3.00285561e+02
611             	3.00285563e+02
612             	3.00285565e+02
613             	3.00285565e+02
614             	3.00285568e+02
615             	3.00285569e+02
616             	3.00285571e+02
617             	3.00285571e+02
618             	3.00285573e+02
619             	3.00285573e+02
620             	3.00285574e+02
621             	3.00285576e+02
622             	3.00285576e+02
623             	3.00285577e+02
624             	3.00285578e+02
625             	3.00285579e+02
626             	3.00285580e+02
627             	3.00285582e+02
628             	3.00285582e+02
629             	3.00285584e+02
630             	3.00285584e+02
631             	3.00285586e+02
632             	3.00285588e+02
633             	3.00285588e+02
634             	3.00285588e+02
635             	3.00285589e+02
636             	3.00285590e+02
637             	3.00285590e+02
638             	3.00285591e+02
639             	3.00285592e+02
640             	3.00285593e+02
641             	3.00285593e+02
642             	3.00285593e+02
643             	3.00285594e+02
644             	3.00285595e+02
645             	3.00285597e+02
646             	3.00285597e+02
647             	3.00285600e+02
648             	3.00285602e+02
649             	3.00285602e+02
650             	3.00285604e+02
651             	3.00285605e+02
652             	3.00285605e+02
653             	3.00285606e+02
654             	3.00285607e+02
655             	3.00285608e+02
656             	3.00285608e+02
657             	3.00285609e+02
658             	3.00285610e+02
659             	3.00285611e+02
660             	3.00285611e+02
661             	3.00285610e+02
662             	3.00285611e+02
663             	3.00285611e+02
664             	3.00285611e+02
665             	3.00285611e+02
666             	3.00285611e+02
667             	3.00285611e+02
668             	3.00285611e+02
669             	3.00285611e+02
670             	3.00285612e+02
671             	3.00285612e+02
672             	3.00285612e+02
673             	3.00285612e+02
674             	3.00285613e+02
675             	3.00285613e+02
676             	3.00285614e+02
677             	3.00285614e+02
678             	3.00285615e+02
679             	3.00285616e+02
680             	3.00285617e+02
681             	3.00285617e+02
682             	3.00285618e+02
683             	3.00285619e+02
684             	3.00285619e+02
685             	3.00285620e+02
686             	3.00285621e+02
687             	3.00285621e+02
688             	3.00285622e+02
689             	3.00285622e+02
690             	3.00285623e+02
691             	3.00285624e+02
692             	3.00285624e+02
693             	3.00285624e+02
694             	3.00285625e+02
695             	3.00285626e+02
696             	3.00285626e+02
697             	3.00285626e+02
698             	3.00285627e+02
699             	3.00285627e+02
700             	3.00285627e+02
701             	3.00285628e+02
702             	3.00285628e+02
703             	3.00285629e+02
704             	3.00285628e+02
705             	3.00285629e+02
706             	3.00285629e+02
707             	3.00285629e+02
708             	3.00285629e+02
709             	3.00285629e+02
710             	3.00285629e+02
711             	3.00285630e+02
712             	3.00285630e+02
713             	3.00285630e+02
714             	3.00285630e+02
715             	3.00285631e+02
716             	3.00285631e+02
717             	3.00285632e+02
718             	3.00285632e+02
719             	3.00285632e+02
720             	3.00285633e+02
721             	3.00285633e+02
722             	3.00285633e+02
723             	3.00285634e+02
724             	3.00285634e+02
725             	3.00285634e+02
726             	3.00285635e+02
727             	3.00285636e+02
728             	3.00285636e+02
729             	3.00285636e+02
730             	3.00285637e+02
731             	3.00285637e+02
732             	3.00285637e+02
733             	3.00285638e+02
734             	3.00285638e+02
735             	3.00285639e+02
736             	3.00285639e+02
737             	3.00285639e+02
738             	3.00285640e+02
739             	3.00285640e+02
740             	3.00285640e+02
741             	3.00285640e+02
742             	3.00285641e+02
743             	3.00285641e+02
744             	3.00285641e+02
745             	3.00285641e+02
746             	3.00285641e+02
747             	3.00285642e+02
748             	3.00285642e+02
749             	3.00285641e+02
750             	3.00285642e+02
751             	3.00285642e+02
752             	3.00285642e+02
753             	3.00285642e+02
754             	3.00285642e+02
755             	3.00285642e+02
756             	3.00285642e+02
757             	3.00285643e+02
758             	3.00285643e+02
759             	3.00285643e+02
760             	3.00285643e+02
761             	3.00285644e+02
762             	3.00285644e+02
763             	3.00285644e+02
764             	3.00285644e+02
765             	3.00285644e+02
766             	3.00285645e+02
767             	3.00285645e+02
768             	3.00285645e+02
769             	3.00285645e+02
770             	3.00285645e+02
771             	3.00285646e+02
772             	3.00285646e+02
773             	3.00285646e+02
774             	3.00285646e+02
775             	3.00285646e+02
776             	3.00285646e+02
777             	3.00285646e+02
778             	3.00285646e+02
779             	3.00285647e+02
780             	3.00285647e+02
781             	3.00285647e+02
782             	3.00285647e+02
783             	3.00285648e+02
784             	3.00285648e+02
785             	3.00285648e+02
786             	3.00285648e+02
787             	3.00285649e+02
788             	3.00285649e+02
789             	3.00285649e+02
790             	3.00285649e+02
791             	3.00285650e+02
792             	3.00285650e+02
793             	3.00285650e+02
794             	3.00285650e+02
795             	3.00285650e+02
796             	3.00285650e+02
797             	3.00285650e+02
798             	3.00285650e+02
799             	3.00285651e+02
800             	3.00285651e+02
801             	3.00285651e+02
802             	3.00285651e+02
803             	3.00285651e+02
804             	3.00285651e+02
805             	3.00285651e+02
806             	3.00285651e+02
807             	3.00285651e+02
808             	3.00285651e+02
809             	3.00285651e+02
810             	3.00285651e+02
811             	3.00285652e+02
812             	3.00285652e+02
813             	3.00285652e+02
814             	3.00285652e+02
815             	3.00285652e+02
816             	3.00285652e+02
817             	3.00285652e+02
818             	3.00285652e+02
819             	3.00285653e+02
820             	3.00285653e+02
821             	3.00285653e+02
822             	3.00285653e+02
823             	3.00285654e+02
824             	3.00285654e+02
825             	3.00285654e+02
826             	3.00285654e+02
827             	3.00285655e+02
828             	3.00285654e+02
829             	3.00285655e+02
830             	3.00285655e+02
831             	3.00285655e+02
832             	3.00285655e+02
833             	3.00285655e+02
834             	3.00285655e+02
835             	3.00285655e+02
836             	3.00285655e+02
837             	3.00285655e+02
838             	3.00285655e+02
839             	3.00285655e+02
840             	3.00285655e+02
841             	3.00285655e+02
842             	3.00285655e+02
843             	3.00285655e+02
844             	3.00285655e+02
845             	3.00285655e+02
846             	3.00285655e+02
847             	3.00285655e+02
848             	3.00285655e+02
849             	3.00285655e+02
850             	3.00285655e+02
851             	3.00285656e+02
852             	3.00285655e+02
853             	3.00285656e+02
854             	3.00285655e+02
855             	3.00285656e+02
856             	3.00285656e+02
857             	3.00285655e+02
858             	3.00285655e+02
859             	3.00285656e+02
860             	3.00285655e+02
861             	3.00285655e+02
862             	3.00285656e+02
863             	3.00285656e+02
864             	3.00285656e+02
865             	3.00285656e+02
866             	3.00285656e+02
867             	3.00285656e+02
868             	3.00285656e+02
869             	3.00285656e+02
870             	3.00285656e+02
871             	3.00285657e+02
872             	3.00285656e+02
873             	3.00285656e+02
874             	3.00285657e+02
875             	3.00285657e+02
876             	3.00285656e+02
877             	3.00285656e+02
878             	3.00285656e+02
879             	3.00285656e+02
880             	3.00285656e+02
881             	3.00285656e+02
882             	3.00285656e+02
883             	3.00285657e+02
884             	3.00285656e+02
885             	3.00285656e+02
886             	3.00285657e+02
887             	3.00285657e+02
888             	3.00285657e+02
889             	3.00285657e+02
890             	3.00285657e+02
891             	3.00285658e+02
892             	3.00285658e+02
893             	3.00285658e+02
894             	3.00285658e+02
895             	3.00285659e+02
896             	3.00285659e+02
897             	3.00285659e+02
898             	3.00285659e+02
899             	3.00285660e+02
900             	3.00285660e+02
901             	3.00285660e+02
902             	3.00285660e+02
903             	3.00285660e+02
904             	3.00285660e+02
905             	3.00285660e+02
906             	3.00285660e+02
907             	3.00285660e+02
908             	3.00285660e+02
909             	3.00285660e+02
910             	3.00285660e+02
911             	3.00285660e+02
912             	3.00285660e+02
913             	3.00285660e+02
914             	3.00285660e+02
915             	3.00285660e+02
916             	3.00285660e+02
917             	3.00285660e+02
918             	3.00285660e+02
919             	3.00285660e+02
920             	3.00285660e+02
921             	3.00285660e+02
922             	3.00285660e+02
923             	3.00285660e+02
924             	3.00285660e+02
925             	3.00285660e+02
926             	3.00285660e+02
927             	3.00285660e+02
928             	3.00285660e+02
929             	3.00285660e+02
930             	3.00285660e+02
931             	3.00285660e+02
932             	3.00285660e+02
933             	3.00285660e+02