# Region        : cellZone fluid
# Cells         : 9475
# Volume        : 1.83557322e+01
# Time          	volAverage(T)
1               	3.00000067e+02
2               	3.00000136e+02
3               	3.00000674e+02
4               	3.00001447e+02
5               	3.00002188e+02
6               	3.00003068e+02
7               	3.00004009e+02
8               	3.00005338e+02
9               	3.00006648e+02
10              	3.00008271e+02
11              	3.00009801e+02
12              	3.00011640e+02
13              	3.00013503e+02
14              	3.00015681e+02
15              	3.00018049e+02
16              	3.00020170e+02
17              	3.00022231e+02
18              	3.00024376e+02
19              	3.00026543e+02
20              	3.00029649e+02
21              	3.00031860e+02
22              	3.00033956e+02
23              	3.00036230e+02
24              	3.00038428e+02
25              	3.00041062e+02
26              	3.00043961e+02
27              	3.00048613e+02
28              	3.00051698e+02
29              	3.00055063e+02
30              	3.00058583e+02
31              	3.00061528e+02
32              	3.00066239e+02
33              	3.00070864e+02
34              	3.00073876e+02
35              	3.00076998e+02
36              	3.00079838e+02
37              	3.00083861e+02
38              	3.00086785e+02
39              	3.00090575e+02
40              	3.00094585e+02
41              	3.00099215e+02
42              	3.00102733e+02
43              	3.00106150e+02
44              	3.00109928e+02
45              	3.00113325e+02
46              	3.00116855e+02
47              	3.00119709e+02
48              	3.00123571e+02
49              	3.00126998e+02
50              	3.00130917e+02
51              	3.00134379e+02
52              	3.00138093e+02
53              	3.00143478e+02
54              	3.00148559e+02
55              	3.00153299e+02
56              	3.00156943e+02
57              	3.00160776e+02
58              	3.00165143e+02
59              	3.00168933e+02
60              	3.00172781e+02
61              	3.00176018e+02
62              	3.00179244e+02
63              	3.00182992e+02
64              	3.00186654e+02
65              	3.00191014e+02
66              	3.00194720e+02
67              	3.00197663e+02
68              	3.00199795e+02
69              	3.00203495e+02
70              	3.00207315e+02
71              	3.00210496e+02
72              	3.00212998e+02
73              	3.00216412e+02
74              	3.00219342e+02
75              	3.00222113e+02
76              	3.00225378e+02
77              	3.00229275e+02
78              	3.00233497e+02
79              	3.00236838e+02
80              	3.00239593e+02
81              	3.00242282e+02
82              	3.00246298e+02
83              	3.00249495e+02
84              	3.00252582e+02
85              	3.00255269e+02
86              	3.00258546e+02
87              	3.00261899e+02
88              	3.00264473e+02
89              	3.00267243e+02
90              	3.00270550e+02
91              	3.00274025e+02
92              	3.00276558e+02
93              	3.00279588e+02
94              	3.00283438e+02
95              	3.00285343e+02
96              	3.00287237e+02
97              	3.00289795e+02
98              	3.00292081e+02
99              	3.00294247e+02
100             	3.00296646e+02
101             	3.00298741e+02
102             	3.00302029e+02
103             	3.00303906e+02
104             	3.00305726e+02
105             	3.00308086e+02
106             	3.00311415e+02
107             	3.00313350e+02
108             	3.00315380e+02
109             	3.00317271e+02
110             	3.00319052e+02
111             	3.00322554e+02
112             	3.00325077e+02
113             	3.00327373e+02
114             	3.00329001e+02
115             	3.00331417e+02
116             	3.00333492e+02
117             	3.00335353e+02
118             	3.00338197e+02
119             	3.00341004e+02
120             	3.00344418e+02
121             	3.00345357e+02
122             	3.00347224e+02
123             	3.00349114e+02
124             	3.00351626e+02
125             	3.00353476e+02
126             	3.00355520e+02
127             	3.00357626e+02
128             	3.00359572e+02
129             	3.00361737e+02
130             	3.00363481e+02
131             	3.00364822e+02
132             	3.00366099e+02
133             	3.00368014e+02
134             	3.00368492e+02
135             	3.00370793e+02
136             	3.00372094e+02
137             	3.00372594e+02
138             	3.00373280e+02
139             	3.00374409e+02
140             	3.00375818e+02
141             	3.00377290e+02
142             	3.00379076e+02
143             	3.00381339e+02
144             	3.00383341e+02
145             	3.00384443e+02
146             	3.00386083e+02
147             	3.00387599e+02
148             	3.00388983e+02
149             	3.00389849e+02
150             	3.00390421e+02
151             	3.00391184e+02
152             	3.00392143e+02
153             	3.00393073e+02
154             	3.00393424e+02
155             	3.00394070e+02
156             	3.00394903e+02
157             	3.00395722e+02
158             	3.00396476e+02
159             	3.00397133e+02
160             	3.00397472e+02
161             	3.00398573e+02
162             	3.00399213e+02
163             	3.00399445e+02
164             	3.00399752e+02
165             	3.00400190e+02
166             	3.00400660e+02
167             	3.00401137e+02
168             	3.00401860e+02
169             	3.00402114e+02
170             	3.00402640e+02
171             	3.00403234e+02
172             	3.00403758e+02
173             	3.00404206e+02
174             	3.00404784e+02
175             	3.00405177e+02
176             	3.00405616e+02
177             	3.00406101e+02
178             	3.00406468e+02
179             	3.00407054e+02
180             	3.00407430e+02
181             	3.00407731e+02
182             	3.00407973e+02
183             	3.00408070e+02
184             	3.00407991e+02
185             	3.00408071e+02
186             	3.00408063e+02
187             	3.00408038e+02
188             	3.00408046e+02
189             	3.00408233e+02
190             	3.00408533e+02
191             	3.00408843e+02
192             	3.00409059e+02
193             	3.00409538e+02
194             	3.00410075e+02
195             	3.00410571e+02
196             	3.00410943e+02
197             	3.00411355e+02
198             	3.00411985e+02
199             	3.00412364e+02
200             	3.00412712e+02
201             	3.00413036e+02
202             	3.00413487e+02
203             	3.00413901e+02
204             	3.00414213e+02
205             	3.00414515e+02
206             	3.00414823e+02
207             	3.00415120e+02
208             	3.00415354e+02
209             	3.00415458e+02
210             	3.00415547e+02
211             	3.00415655e+02
212             	3.00415722e+02
213             	3.00415800e+02
214             	3.00415888e+02
215             	3.00416063e+02
216             	3.00416349e+02
217             	3.00416579e+02
218             	3.00416822e+02
219             	3.00417216e+02
220             	3.00417629e+02
221             	3.00418064e+02
222             	3.00418468e+02
223             	3.00418892e+02
224             	3.00419279e+02
225             	3.00419663e+02
226             	3.00419965e+02
227             	3.00420256e+02
228             	3.00420520e+02
229             	3.00420766e+02
230             	3.00421084e+02
231             	3.00421262e+02
232             	3.00421484e+02
233             	3.00421717e+02
234             	3.00421962e+02
235             	3.00422193e+02
236             	3.00422342e+02
237             	3.00422513e+02
238             	3.00422667e+02
239             	3.00422743e+02
240             	3.00422788e+02
241             	3.00422847e+02
242             	3.00422899e+02
243             	3.00422955e+02
244             	3.00423036e+02
245             	3.00423167e+02
246             	3.00423364e+02
247             	3.00423620e+02
248             	3.00423976e+02
249             	3.00424318e+02
250             	3.00424688e+02
251             	3.00425030e+02
252             	3.00425395e+02
253             	3.00425713e+02
254             	3.00426019e+02
255             	3.00426291e+02
256             	3.00426499e+02
257             	3.00426625e+02
258             	3.00426686e+02
259             	3.00426750e+02
260             	3.00426904e+02
261             	3.00426943e+02
262             	3.00427022e+02
263             	3.00427051e+02
264             	3.00427109e+02
265             	3.00427182e+02
266             	3.00427277e+02
267             	3.00427408e+02
268             	3.00427534e+02
269             	3.00427665e+02
270             	3.00427707e+02
271             	3.00427851e+02
272             	3.00427995e+02
273             	3.00428140e+02
274             	3.00428302e+02
275             	3.00428469e+02
276             	3.00428653e+02
277             	3.00428839e+02
278             	3.00429019e+02
279             	3.00429193e+02
280             	3.00429346e+02
281             	3.00429500e+02
282             	3.00429653e+02
283             	3.00429789e+02
284             	3.00429917e+02
285             	3.00430041e+02
286             	3.00430152e+02
287             	3.00430250e+02
288             	3.00430345e+02
289             	3.00430442e+02
290             	3.00430532e+02
291             	3.00430608e+02
292             	3.00430683e+02
293             	3.00430749e+02
294             	3.00430764e+02
295             	3.00430790e+02
296             	3.00430846e+02
297             	3.00430889e+02
298             	3.00430992e+02
299             	3.00431136e+02
300             	3.00431259e+02
301             	3.00431381e+02
302             	3.00431495e+02
303             	3.00431635e+02
304             	3.00431732e+02
305             	3.00431856e+02
306             	3.00431978e+02
307             	3.00432114e+02
308             	3.00432255e+02
309             	3.00432394e+02
310             	3.00432516e+02
311             	3.00432594e+02
312             	3.00432700e+02
313             	3.00432768e+02
314             	3.00432807e+02
315             	3.00432829e+02
316             	3.00432843e+02
317             	3.00432842e+02
318             	3.00432833e+02
319             	3.00432822e+02
320             	3.00432809e+02
321             	3.00432805e+02
322             	3.00432838e+02
323             	3.00432878e+02
324             	3.00432931e+02
325             	3.00432996e+02
326             	3.00433078e+02
327             	3.00433178e+02
328             	3.00433283e+02
329             	3.00433392e+02
330             	3.00433504e+02
331             	3.00433613e+02
332             	3.00433717e+02
333             	3.00433813e+02
334             	3.00433905e+02
335             	3.00433989e+02
336             	3.00434053e+02
337             	3.00434099e+02
338             	3.00434130e+02
339             	3.00434145e+02
340             	3.00434156e+02
341             	3.00434174e+02
342             	3.00434170e+02
343             	3.00434169e+02
344             	3.00434172e+02
345             	3.00434175e+02
346             	3.00434183e+02
347             	3.00434201e+02
348             	3.00434230e+02
349             	3.00434268e+02
350             	3.00434298e+02
351             	3.00434344e+02
352             	3.00434382e+02
353             	3.00434441e+02
354             	3.00434498e+02
355             	3.00434552e+02
356             	3.00434610e+02
357             	3.00434672e+02
358             	3.00434750e+02
359             	3.00434824e+02
360             	3.00434893e+02
361             	3.00434957e+02
362             	3.00435016e+02
363             	3.00435069e+02
364             	3.00435108e+02
365             	3.00435138e+02
366             	3.00435157e+02
367             	3.00435170e+02
368             	3.00435177e+02
369             	3.00435176e+02
370             	3.00435169e+02
371             	3.00435161e+02
372             	3.00435152e+02
373             	3.00435144e+02
374             	3.00435139e+02
375             	3.00435140e+02
376             	3.00435148e+02
377             	3.00435166e+02
378             	3.00435192e+02
379             	3.00435226e+02
380             	3.00435273e+02
381             	3.00435327e+02
382             	3.00435385e+02
383             	3.00435446e+02
384             	3.00435509e+02
385             	3.00435575e+02
386             	3.00435638e+02
387             	3.00435697e+02
388             	3.00435748e+02
389             	3.00435793e+02
390             	3.00435830e+02
391             	3.00435860e+02
392             	3.00435884e+02
393             	3.00435900e+02
394             	3.00435905e+02
395             	3.00435905e+02
396             	3.00435898e+02
397             	3.00435884e+02
398             	3.00435867e+02
399             	3.00435848e+02
400             	3.00435832e+02
401             	3.00435818e+02
402             	3.00435808e+02
403             	3.00435804e+02
404             	3.00435808e+02
405             	3.00435820e+02
406             	3.00435840e+02
407             	3.00435868e+02
408             	3.00435903e+02
409             	3.00435945e+02
410             	3.00435992e+02
411             	3.00436044e+02
412             	3.00436099e+02
413             	3.00436153e+02
414             	3.00436206e+02
415             	3.00436256e+02
416             	3.00436303e+02
417             	3.00436345e+02
418             	3.00436381e+02
419             	3.00436405e+02
420             	3.00436430e+02
421             	3.00436446e+02
422             	3.00436456e+02
423             	3.00436461e+02
424             	3.00436462e+02
425             	3.00436459e+02
426             	3.00436452e+02
427             	3.00436444e+02
428             	3.00436438e+02
429             	3.00436435e+02
430             	3.00436435e+02
431             	3.00436438e+02
432             	3.00436447e+02
433             	3.00436462e+02
434             	3.00436483e+02
435             	3.00436509e+02
436             	3.00436540e+02
437             	3.00436575e+02
438             	3.00436613e+02
439             	3.00436653e+02
440             	3.00436697e+02
441             	3.00436738e+02
442             	3.00436779e+02
443             	3.00436817e+02
444             	3.00436852e+02
445             	3.00436875e+02
446             	3.00436897e+02
447             	3.00436915e+02
448             	3.00436928e+02
449             	3.00436937e+02
450             	3.00436942e+02
451             	3.00436943e+02
452             	3.00436946e+02
453             	3.00436946e+02
454             	3.00436958e+02
455             	3.00436966e+02
456             	3.00436974e+02
457             	3.00436983e+02
458             	3.00436992e+02
459             	3.00436997e+02
460             	3.00437009e+02
461             	3.00437021e+02
462             	3.00437038e+02
463             	3.00437052e+02
464             	3.00437066e+02
465             	3.00437086e+02
466             	3.00437103e+02
467             	3.00437129e+02
468             	3.00437154e+02
469             	3.00437186e+02
470             	3.00437205e+02
471             	3.00437233e+02
472             	3.00437262e+02
473             	3.00437287e+02
474             	3.00437304e+02
475             	3.00437308e+02
476             	3.00437325e+02
477             	3.00437330e+02
478             	3.00437335e+02
479             	3.00437343e+02
480             	3.00437344e+02
481             	3.00437341e+02
482             	3.00437342e+02
483             	3.00437342e+02
484             	3.00437344e+02
485             	3.00437348e+02
486             	3.00437354e+02
487             	3.00437365e+02
488             	3.00437381e+02
489             	3.00437399e+02
490             	3.00437418e+02
491             	3.00437440e+02
492             	3.00437466e+02
493             	3.00437491e+02
494             	3.00437515e+02
495             	3.00437541e+02
496             	3.00437567e+02
497             	3.00437588e+02
498             	3.00437608e+02
499             	3.00437626e+02
500             	3.00437642e+02
501             	3.00437656e+02
502             	3.00437669e+02
503             	3.00437678e+02
504             	3.00437688e+02
505             	3.00437698e+02
506             	3.00437704e+02
507             	3.00437712e+02
508             	3.00437719e+02
509             	3.00437723e+02
510             	3.00437729e+02
511             	3.00437738e+02
512             	3.00437747e+02
513             	3.00437758e+02
514             	3.00437768e+02
515             	3.00437778e+02
516             	3.00437789e+02
517             	3.00437800e+02
518             	3.00437812e+02
519             	3.00437826e+02
520             	3.00437836e+02
521             	3.00437855e+02
522             	3.00437869e+02
523             	3.00437885e+02
524             	3.00437903e+02
525             	3.00437921e+02
526             	3.00437939e+02
527             	3.00437956e+02
528             	3.00437972e+02
529             	3.00437987e+02
530             	3.00438001e+02
531             	3.00438009e+02
532             	3.00438015e+02
533             	3.00438023e+02
534             	3.00438029e+02
535             	3.00438034e+02
536             	3.00438041e+02
537             	3.00438049e+02
538             	3.00438057e+02
539             	3.00438063e+02
540             	3.00438070e+02
541             	3.00438081e+02
542             	3.00438089e+02
543             	3.00438098e+02
544             	3.00438107e+02
545             	3.00438119e+02
546             	3.00438134e+02
547             	3.00438146e+02
548             	3.00438164e+02
549             	3.00438180e+02
550             	3.00438196e+02
551             	3.00438209e+02
552             	3.00438220e+02
553             	3.00438230e+02
554             	3.00438242e+02
555             	3.00438255e+02
556             	3.00438262e+02
557             	3.00438270e+02
558             	3.00438277e+02
559             	3.00438284e+02
560             	3.00438291e+02
561             	3.00438300e+02
562             	3.00438308e+02
563             	3.00438317e+02
564             	3.00438326e+02
565             	3.00438334e+02
566             	3.00438340e+02
567             	3.00438350e+02
568             	3.00438359e+02
569             	3.00438367e+02
570             	3.00438375e+02
571             	3.00438385e+02
572             	3.00438393e+02
573             	3.00438402e+02
574             	3.00438412e+02
575             	3.00438421e+02
576             	3.00438432e+02
577             	3.00438443e+02
578             	3.00438454e+02
579             	3.00438464e+02
580             	3.00438473e+02
581             	3.00438483e+02
582             	3.00438493e+02
583             	3.00438503e+02
584             	3.00438512e+02
585             	3.00438522e+02
586             	3.00438532e+02
587             	3.00438540e+02
588             	3.00438548e+02
589             	3.00438556e+02
590             	3.00438564e+02
591             	3.00438572e+02
592             	3.00438579e+02
593             	3.00438585e+02
594             	3.00438592e+02
595             	3.00438597e+02
596             	3.00438604e+02
597             	3.00438611e+02
598             	3.00438618e+02
599             	3.00438626e+02
600             	3.00438634e+02
601             	3.00438643e+02
602             	3.00438653e+02
603             	3.00438663e+02
604             	3.00438673e+02
605             	3.00438683e+02
606             	3.00438693e+02
607             	3.00438702e+02
608             	3.00438710e+02
609             	3.00438719e+02
610             	3.00438727e+02
611             	3.00438734e+02
612             	3.00438741e+02
613             	3.00438749e+02
614             	3.00438755e+02
615             	3.00438761e+02
616             	3.00438768e+02
617             	3.00438774e+02
618             	3.00438781e+02
619             	3.00438787e+02
620             	3.00438793e+02
621             	3.00438799e+02
622             	3.00438805e+02
623             	3.00438812e+02
624             	3.00438820e+02
625             	3.00438827e+02
626             	3.00438834e+02
627             	3.00438842e+02
628             	3.00438849e+02
629             	3.00438858e+02
630             	3.00438865e+02
631             	3.00438873e+02
632             	3.00438880e+02
633             	3.00438888e+02
634             	3.00438895e+02
635             	3.00438902e+02
636             	3.00438909e+02
637             	3.00438916e+02
638             	3.00438922e+02
639             	3.00438929e+02
640             	3.00438935e+02
641             	3.00438942e+02
642             	3.00438949e+02
643             	3.00438955e+02
644             	3.00438961e+02
645             	3.00438967e+02
646             	3.00438974e+02
647             	3.00438980e+02
648             	3.00438986e+02
649             	3.00438993e+02
650             	3.00438999e+02
651             	3.00439006e+02
652             	3.00439012e+02
653             	3.00439019e+02
654             	3.00439026e+02
655             	3.00439032e+02
656             	3.00439039e+02
657             	3.00439046e+02
658             	3.00439053e+02
659             	3.00439059e+02
660             	3.00439066e+02
661             	3.00439072e+02
662             	3.00439077e+02
663             	3.00439083e+02
664             	3.00439089e+02
665             	3.00439094e+02
666             	3.00439100e+02
667             	3.00439105e+02
668             	3.00439111e+02
669             	3.00439117e+02
670             	3.00439122e+02
671             	3.00439128e+02
672             	3.00439134e+02
673             	3.00439139e+02
674             	3.00439145e+02
675             	3.00439151e+02
676             	3.00439157e+02
677             	3.00439162e+02
678             	3.00439168e+02
679             	3.00439174e+02
680             	3.00439180e+02
681             	3.00439186e+02
682             	3.00439192e+02
683             	3.00439198e+02
684             	3.00439204e+02
685             	3.00439210e+02
686             	3.00439216e+02
687             	3.00439222e+02
688             	3.00439228e+02
689             	3.00439233e+02
690             	3.00439239e+02
691             	3.00439244e+02
692             	3.00439249e+02
693             	3.00439254e+02
694             	3.00439258e+02
695             	3.00439263e+02
696             	3.00439267e+02
697             	3.00439272e+02
698             	3.00439277e+02
699             	3.00439281e+02
700             	3.00439286e+02
701             	3.00439291e+02
702             	3.00439296e+02
703             	3.00439301e+02
704             	3.00439306e+02
705             	3.00439311e+02
706             	3.00439315e+02
707             	3.00439320e+02
708             	3.00439325e+02
709             	3.00439330e+02
710             	3.00439334e+02
711             	3.00439340e+02
712             	3.00439346e+02
713             	3.00439352e+02
714             	3.00439357e+02
715             	3.00439363e+02
716             	3.00439369e+02
717             	3.00439374e+02
718             	3.00439379e+02
719             	3.00439385e+02
720             	3.00439390e+02
721             	3.00439394e+02
722             	3.00439398e+02
723             	3.00439403e+02
724             	3.00439408e+02
725             	3.00439412e+02
726             	3.00439415e+02
727             	3.00439419e+02
728             	3.00439422e+02
729             	3.00439426e+02
730             	3.00439429e+02
731             	3.00439432e+02
732             	3.00439436e+02
733             	3.00439441e+02
734             	3.00439446e+02
735             	3.00439451e+02
736             	3.00439456e+02
737             	3.00439460e+02
738             	3.00439465e+02
739             	3.00439470e+02
740             	3.00439475e+02
741             	3.00439479e+02
742             	3.00439484e+02
743             	3.00439488e+02
744             	3.00439491e+02
745             	3.00439495e+02
746             	3.00439499e+02
747             	3.00439502e+02
748             	3.00439508e+02
749             	3.00439512e+02
750             	3.00439517e+02
751             	3.00439522e+02
752             	3.00439526e+02
753             	3.00439531e+02
754             	3.00439535e+02
755             	3.00439539e+02
756             	3.00439543e+02
757             	3.00439546e+02
758             	3.00439550e+02
759             	3.00439553e+02
760             	3.00439556e+02
761             	3.00439559e+02
762             	3.00439561e+02
763             	3.00439564e+02
764             	3.00439568e+02
765             	3.00439571e+02
766             	3.00439574e+02
767             	3.00439578e+02
768             	3.00439581e+02
769             	3.00439585e+02
770             	3.00439588e+02
771             	3.00439592e+02
772             	3.00439596e+02
773             	3.00439601e+02
774             	3.00439605e+02
775             	3.00439609e+02
776             	3.00439613e+02
777             	3.00439617e+02
778             	3.00439621e+02
779             	3.00439625e+02
780             	3.00439628e+02
781             	3.00439631e+02
782             	3.00439634e+02
783             	3.00439637e+02
784             	3.00439640e+02
785             	3.00439643e+02
786             	3.00439646e+02
787             	3.00439648e+02
788             	3.00439651e+02
789             	3.00439655e+02
790             	3.00439658e+02
791             	3.00439661e+02
792             	3.00439665e+02
793             	3.00439669e+02
794             	3.00439672e+02
795             	3.00439675e+02
796             	3.00439679e+02
797             	3.00439682e+02
798             	3.00439686e+02
799             	3.00439689e+02
800             	3.00439692e+02
801             	3.00439695e+02
802             	3.00439698e+02
803             	3.00439701e+02
804             	3.00439703e+02
805             	3.00439706e+02
806             	3.00439709e+02
807             	3.00439712e+02
808             	3.00439716e+02
809             	3.00439720e+02
810             	3.00439723e+02
811             	3.00439727e+02
812             	3.00439730e+02
813             	3.00439734e+02
814             	3.00439737e+02
815             	3.00439740e+02
816             	3.00439743e+02
817             	3.00439746e+02
818             	3.00439749e+02
819             	3.00439751e+02
820             	3.00439753e+02
821             	3.00439756e+02
822             	3.00439759e+02
823             	3.00439761e+02
824             	3.00439764e+02
825             	3.00439766e+02
826             	3.00439769e+02
827             	3.00439771e+02
828             	3.00439774e+02
829             	3.00439777e+02
830             	3.00439779e+02
831             	3.00439782e+02
832             	3.00439785e+02
833             	3.00439788e+02
834             	3.00439790e+02
835             	3.00439793e+02
836             	3.00439796e+02
837             	3.00439799e+02
838             	3.00439802e+02
839             	3.00439806e+02
840             	3.00439809e+02
841             	3.00439813e+02
842             	3.00439816e+02
843             	3.00439820e+02
844             	3.00439823e+02
845             	3.00439826e+02
846             	3.00439830e+02
847             	3.00439833e+02
848             	3.00439835e+02
849             	3.00439838e+02
850             	3.00439841e+02
851             	3.00439843e+02
852             	3.00439844e+02
853             	3.00439846e+02
854             	3.00439848e+02
855             	3.00439850e+02
856             	3.00439851e+02
857             	3.00439853e+02
858             	3.00439855e+02
859             	3.00439857e+02
860             	3.00439859e+02
861             	3.00439862e+02
862             	3.00439864e+02
863             	3.00439867e+02
864             	3.00439869e+02
865             	3.00439872e+02
866             	3.00439875e+02
867             	3.00439878e+02
868             	3.00439881e+02
869             	3.00439884e+02
870             	3.00439887e+02
871             	3.00439891e+02
872             	3.00439894e+02
873             	3.00439897e+02
874             	3.00439900e+02
875             	3.00439903e+02
876             	3.00439906e+02
877             	3.00439908e+02
878             	3.00439911e+02
879             	3.00439913e+02
880             	3.00439915e+02
881             	3.00439917e+02
882             	3.00439919e+02
883             	3.00439921e+02
884             	3.00439923e+02
885             	3.00439925e+02
886             	3.00439927e+02
887             	3.00439929e+02
888             	3.00439931e+02
889             	3.00439933e+02
890             	3.00439936e+02
891             	3.00439938e+02
892             	3.00439940e+02
893             	3.00439943e+02
894             	3.00439946e+02
895             	3.00439948e+02
896             	3.00439951e+02
897             	3.00439955e+02
898             	3.00439958e+02
899             	3.00439960e+02
900             	3.00439963e+02
901             	3.00439966e+02
902             	3.00439968e+02
903             	3.00439970e+02
904             	3.00439973e+02
905             	3.00439974e+02
906             	3.00439976e+02
907             	3.00439978e+02
908             	3.00439980e+02
909             	3.00439982e+02
910             	3.00439984e+02
911             	3.00439986e+02
912             	3.00439987e+02
913             	3.00439989e+02
914             	3.00439991e+02
915             	3.00439992e+02
916             	3.00439994e+02
917             	3.00439996e+02
918             	3.00439998e+02
919             	3.00440000e+02
920             	3.00440002e+02
921             	3.00440005e+02
922             	3.00440007e+02
923             	3.00440010e+02
924             	3.00440013e+02
925             	3.00440015e+02
926             	3.00440018e+02
927             	3.00440020e+02
928             	3.00440022e+02
929             	3.00440024e+02
930             	3.00440026e+02
931             	3.00440028e+02
932             	3.00440029e+02
933             	3.00440031e+02