# Region        : cellZone component_0
# Cells         : 256
# Volume        : 4.86317564e-01
# Time          	volAverage(T)
1               	3.00335532e+02
2               	3.00665981e+02
3               	3.00966178e+02
4               	3.01247271e+02
5               	3.01520697e+02
6               	3.01789800e+02
7               	3.02054624e+02
8               	3.02316702e+02
9               	3.02577722e+02
10              	3.02835681e+02
11              	3.03089828e+02
12              	3.03340624e+02
13              	3.03588381e+02
14              	3.03831875e+02
15              	3.04071805e+02
16              	3.04305368e+02
17              	3.04540504e+02
18              	3.04772692e+02
19              	3.05002027e+02
20              	3.05227273e+02
21              	3.05448113e+02
22              	3.05670037e+02
23              	3.05885328e+02
24              	3.06084022e+02
25              	3.06274331e+02
26              	3.06455976e+02
27              	3.06635738e+02
28              	3.06824353e+02
29              	3.07010465e+02
30              	3.07190452e+02
31              	3.07364568e+02
32              	3.07537194e+02
33              	3.07715457e+02
34              	3.07873941e+02
35              	3.08007764e+02
36              	3.08127660e+02
37              	3.08238986e+02
38              	3.08347721e+02
39              	3.08466542e+02
40              	3.08597352e+02
41              	3.08734391e+02
42              	3.08866184e+02
43              	3.08993381e+02
44              	3.09125400e+02
45              	3.09251336e+02
46              	3.09374155e+02
47              	3.09490416e+02
48              	3.09603568e+02
49              	3.09713610e+02
50              	3.09820095e+02
51              	3.09925355e+02
52              	3.10029904e+02
53              	3.10134848e+02
54              	3.10242889e+02
55              	3.10357128e+02
56              	3.10461095e+02
57              	3.10552489e+02
58              	3.10640388e+02
59              	3.10718196e+02
60              	3.10796091e+02
61              	3.10871734e+02
62              	3.10945339e+02
63              	3.11018916e+02
64              	3.11090164e+02
65              	3.11164104e+02
66              	3.11234867e+02
67              	3.11303888e+02
68              	3.11373479e+02
69              	3.11442931e+02
70              	3.11510231e+02
71              	3.11574167e+02
72              	3.11637393e+02
73              	3.11702519e+02
74              	3.11757885e+02
75              	3.11808031e+02
76              	3.11847950e+02
77              	3.11886321e+02
78              	3.11921991e+02
79              	3.11960106e+02
80              	3.11997884e+02
81              	3.12035724e+02
82              	3.12079196e+02
83              	3.12128254e+02
84              	3.12177666e+02
85              	3.12224465e+02
86              	3.12265672e+02
87              	3.12301480e+02
88              	3.12337208e+02
89              	3.12372277e+02
90              	3.12404626e+02
91              	3.12432789e+02
92              	3.12460611e+02
93              	3.12487524e+02
94              	3.12514807e+02
95              	3.12544224e+02
96              	3.12574337e+02
97              	3.12605926e+02
98              	3.12636719e+02
99              	3.12667477e+02
100             	3.12697123e+02
101             	3.12724096e+02
102             	3.12749980e+02
103             	3.12773686e+02
104             	3.12796407e+02
105             	3.12819194e+02
106             	3.12842821e+02
107             	3.12866110e+02
108             	3.12889301e+02
109             	3.12913068e+02
110             	3.12937787e+02
111             	3.12962655e+02
112             	3.12987142e+02
113             	3.13010632e+02
114             	3.13033301e+02
115             	3.13054212e+02
116             	3.13077760e+02
117             	3.13101738e+02
118             	3.13124762e+02
119             	3.13144804e+02
120             	3.13163887e+02
121             	3.13182983e+02
122             	3.13201471e+02
123             	3.13218025e+02
124             	3.13232404e+02
125             	3.13245904e+02
126             	3.13259513e+02
127             	3.13272927e+02
128             	3.13286808e+02
129             	3.13301350e+02
130             	3.13316103e+02
131             	3.13331669e+02
132             	3.13347331e+02
133             	3.13361543e+02
134             	3.13374603e+02
135             	3.13387034e+02
136             	3.13398853e+02
137             	3.13409897e+02
138             	3.13420068e+02
139             	3.13429719e+02
140             	3.13439321e+02
141             	3.13448321e+02
142             	3.13456944e+02
143             	3.13466194e+02
144             	3.13475737e+02
145             	3.13484963e+02
146             	3.13493843e+02
147             	3.13502564e+02
148             	3.13510994e+02
149             	3.13519181e+02
150             	3.13527470e+02
151             	3.13535837e+02
152             	3.13544575e+02
153             	3.13553399e+02
154             	3.13562104e+02
155             	3.13570164e+02
156             	3.13578164e+02
157             	3.13586619e+02
158             	3.13594608e+02
159             	3.13601156e+02
160             	3.13607236e+02
161             	3.13612307e+02
162             	3.13617301e+02
163             	3.13622124e+02
164             	3.13626962e+02
165             	3.13632703e+02
166             	3.13639166e+02
167             	3.13644794e+02
168             	3.13651391e+02
169             	3.13658613e+02
170             	3.13665580e+02
171             	3.13671375e+02
172             	3.13676512e+02
173             	3.13681237e+02
174             	3.13685369e+02
175             	3.13688344e+02
176             	3.13690976e+02
177             	3.13693677e+02
178             	3.13696878e+02
179             	3.13700649e+02
180             	3.13704455e+02
181             	3.13708965e+02
182             	3.13713632e+02
183             	3.13718498e+02
184             	3.13722933e+02
185             	3.13726921e+02
186             	3.13730531e+02
187             	3.13733709e+02
188             	3.13736598e+02
189             	3.13739280e+02
190             	3.13741936e+02
191             	3.13744540e+02
192             	3.13747159e+02
193             	3.13750286e+02
194             	3.13753169e+02
195             	3.13756144e+02
196             	3.13759248e+02
197             	3.13762042e+02
198             	3.13764632e+02
199             	3.13767101e+02
200             	3.13769205e+02
201             	3.13771336e+02
202             	3.13773794e+02
203             	3.13776339e+02
204             	3.13778992e+02
205             	3.13781923e+02
206             	3.13784914e+02
207             	3.13788010e+02
208             	3.13791049e+02
209             	3.13793699e+02
210             	3.13796313e+02
211             	3.13798944e+02
212             	3.13801498e+02
213             	3.13803729e+02
214             	3.13805678e+02
215             	3.13807663e+02
216             	3.13809691e+02
217             	3.13811773e+02
218             	3.13813917e+02
219             	3.13816200e+02
220             	3.13818697e+02
221             	3.13821277e+02
222             	3.13823921e+02
223             	3.13826613e+02
224             	3.13829230e+02
225             	3.13831681e+02
226             	3.13833832e+02
227             	3.13835694e+02
228             	3.13837313e+02
229             	3.13838908e+02
230             	3.13840437e+02
231             	3.13841896e+02
232             	3.13843194e+02
233             	3.13844516e+02
234             	3.13845892e+02
235             	3.13847426e+02
236             	3.13849028e+02
237             	3.13850743e+02
238             	3.13852611e+02
239             	3.13854438e+02
240             	3.13856135e+02
241             	3.13857742e+02
242             	3.13859210e+02
243             	3.13860546e+02
244             	3.13861670e+02
245             	3.13862449e+02
246             	3.13863450e+02
247             	3.13864651e+02
248             	3.13865725e+02
249             	3.13866629e+02
250             	3.13867445e+02
251             	3.13868002e+02
252             	3.13868508e+02
253             	3.13869071e+02
254             	3.13869816e+02
255             	3.13870695e+02
256             	3.13871717e+02
257             	3.13872802e+02
258             	3.13874061e+02
259             	3.13875301e+02
260             	3.13876497e+02
261             	3.13877741e+02
262             	3.13879027e+02
263             	3.13880342e+02
264             	3.13881488e+02
265             	3.13882353e+02
266             	3.13883048e+02
267             	3.13883595e+02
268             	3.13883998e+02
269             	3.13884283e+02
270             	3.13884435e+02
271             	3.13884506e+02
272             	3.13884754e+02
273             	3.13885187e+02
274             	3.13886052e+02
275             	3.13886967e+02
276             	3.13888196e+02
277             	3.13889570e+02
278             	3.13891020e+02
279             	3.13892419e+02
280             	3.13893630e+02
281             	3.13894456e+02
282             	3.13894824e+02
283             	3.13895227e+02
284             	3.13895389e+02
285             	3.13895317e+02
286             	3.13895113e+02
287             	3.13895072e+02
288             	3.13895392e+02
289             	3.13896045e+02
290             	3.13896947e+02
291             	3.13898076e+02
292             	3.13899297e+02
293             	3.13900714e+02
294             	3.13901951e+02
295             	3.13902864e+02
296             	3.13903568e+02
297             	3.13903997e+02
298             	3.13904270e+02
299             	3.13904465e+02
300             	3.13904775e+02
301             	3.13905296e+02
302             	3.13906203e+02
303             	3.13907161e+02
304             	3.13908166e+02
305             	3.13908893e+02
306             	3.13909397e+02
307             	3.13909824e+02
308             	3.13910021e+02
309             	3.13910038e+02
310             	3.13909989e+02
311             	3.13909919e+02
312             	3.13910186e+02
313             	3.13910505e+02
314             	3.13911096e+02
315             	3.13911887e+02
316             	3.13912597e+02
317             	3.13913509e+02
318             	3.13914284e+02
319             	3.13915113e+02
320             	3.13915933e+02
321             	3.13916594e+02
322             	3.13917010e+02
323             	3.13917175e+02
324             	3.13917270e+02
325             	3.13917393e+02
326             	3.13917518e+02
327             	3.13917758e+02
328             	3.13918048e+02
329             	3.13918435e+02
330             	3.13918839e+02
331             	3.13919250e+02
332             	3.13919568e+02
333             	3.13919809e+02
334             	3.13919969e+02
335             	3.13920077e+02
336             	3.13920156e+02
337             	3.13920224e+02
338             	3.13920282e+02
339             	3.13920459e+02
340             	3.13920749e+02
341             	3.13921186e+02
342             	3.13921544e+02
343             	3.13921854e+02
344             	3.13922182e+02
345             	3.13922616e+02
346             	3.13923076e+02
347             	3.13923455e+02
348             	3.13923777e+02
349             	3.13924095e+02
350             	3.13924340e+02
351             	3.13924466e+02
352             	3.13924524e+02
353             	3.13924593e+02
354             	3.13924651e+02
355             	3.13924718e+02
356             	3.13924832e+02
357             	3.13924977e+02
358             	3.13925121e+02
359             	3.13925286e+02
360             	3.13925468e+02
361             	3.13925704e+02
362             	3.13925888e+02
363             	3.13926037e+02
364             	3.13926185e+02
365             	3.13926360e+02
366             	3.13926550e+02
367             	3.13926759e+02
368             	3.13926987e+02
369             	3.13927222e+02
370             	3.13927428e+02
371             	3.13927606e+02
372             	3.13927678e+02
373             	3.13927736e+02
374             	3.13927773e+02
375             	3.13927811e+02
376             	3.13927856e+02
377             	3.13927953e+02
378             	3.13928094e+02
379             	3.13928200e+02
380             	3.13928304e+02
381             	3.13928400e+02
382             	3.13928505e+02
383             	3.13928572e+02
384             	3.13928661e+02
385             	3.13928752e+02
386             	3.13928845e+02
387             	3.13929021e+02
388             	3.13929168e+02
389             	3.13929295e+02
390             	3.13929442e+02
391             	3.13929606e+02
392             	3.13929778e+02
393             	3.13929949e+02
394             	3.13930118e+02
395             	3.13930168e+02
396             	3.13930206e+02
397             	3.13930239e+02
398             	3.13930246e+02
399             	3.13930239e+02
400             	3.13930233e+02
401             	3.13930209e+02
402             	3.13930192e+02
403             	3.13930194e+02
404             	3.13930212e+02
405             	3.13930249e+02
406             	3.13930293e+02
407             	3.13930337e+02
408             	3.13930412e+02
409             	3.13930512e+02
410             	3.13930616e+02
411             	3.13930728e+02
412             	3.13930841e+02
413             	3.13930952e+02
414             	3.13931061e+02
415             	3.13931163e+02
416             	3.13931260e+02
417             	3.13931351e+02
418             	3.13931429e+02
419             	3.13931500e+02
420             	3.13931543e+02
421             	3.13931583e+02
422             	3.13931621e+02
423             	3.13931656e+02
424             	3.13931690e+02
425             	3.13931720e+02
426             	3.13931754e+02
427             	3.13931793e+02
428             	3.13931838e+02
429             	3.13931902e+02
430             	3.13931980e+02
431             	3.13932063e+02
432             	3.13932148e+02
433             	3.13932237e+02
434             	3.13932322e+02
435             	3.13932395e+02
436             	3.13932464e+02
437             	3.13932529e+02
438             	3.13932597e+02
439             	3.13932649e+02
440             	3.13932682e+02
441             	3.13932704e+02
442             	3.13932733e+02
443             	3.13932776e+02
444             	3.13932818e+02
445             	3.13932854e+02
446             	3.13932890e+02
447             	3.13932919e+02
448             	3.13932964e+02
449             	3.13933031e+02
450             	3.13933096e+02
451             	3.13933157e+02
452             	3.13933218e+02
453             	3.13933277e+02
454             	3.13933336e+02
455             	3.13933389e+02
456             	3.13933441e+02
457             	3.13933502e+02
458             	3.13933560e+02
459             	3.13933616e+02
460             	3.13933660e+02
461             	3.13933705e+02
462             	3.13933750e+02
463             	3.13933776e+02
464             	3.13933795e+02
465             	3.13933811e+02
466             	3.13933821e+02
467             	3.13933828e+02
468             	3.13933838e+02
469             	3.13933855e+02
470             	3.13933889e+02
471             	3.13933935e+02
472             	3.13933983e+02
473             	3.13934038e+02
474             	3.13934092e+02
475             	3.13934147e+02
476             	3.13934196e+02
477             	3.13934242e+02
478             	3.13934280e+02
479             	3.13934307e+02
480             	3.13934323e+02
481             	3.13934340e+02
482             	3.13934356e+02
483             	3.13934369e+02
484             	3.13934384e+02
485             	3.13934405e+02
486             	3.13934429e+02
487             	3.13934454e+02
488             	3.13934481e+02
489             	3.13934507e+02
490             	3.13934534e+02
491             	3.13934555e+02
492             	3.13934575e+02
493             	3.13934596e+02
494             	3.13934616e+02
495             	3.13934638e+02
496             	3.13934660e+02
497             	3.13934684e+02
498             	3.13934712e+02
499             	3.13934738e+02
500             	3.13934763e+02
501             	3.13934786e+02
502             	3.13934815e+02
503             	3.13934843e+02
504             	3.13934868e+02
505             	3.13934890e+02
506             	3.13934908e+02
507             	3.13934929e+02
508             	3.13934950e+02
509             	3.13934969e+02
510             	3.13934983e+02
511             	3.13934996e+02
512             	3.13935009e+02
513             	3.13935021e+02
514             	3.13935036e+02
515             	3.13935054e+02
516             	3.13935075e+02
517             	3.13935096e+02
518             	3.13935122e+02
519             	3.13935145e+02
520             	3.13935170e+02
521             	3.13935195e+02
522             	3.13935219e+02
523             	3.13935239e+02
524             	3.13935261e+02
525             	3.13935286e+02
526             	3.13935312e+02
527             	3.13935340e+02
528             	3.13935367e+02
529             	3.13935388e+02
530             	3.13935405e+02
531             	3.13935420e+02
532             	3.13935432e+02
533             	3.13935444e+02
534             	3.13935451e+02
535             	3.13935458e+02
536             	3.13935466e+02
537             	3.13935475e+02
538             	3.13935485e+02
539             	3.13935498e+02
540             	3.13935514e+02
541             	3.13935534e+02
542             	3.13935555e+02
543             	3.13935573e+02
544             	3.13935592e+02
545             	3.13935607e+02
546             	3.13935623e+02
547             	3.13935639e+02
548             	3.13935653e+02
549             	3.13935665e+02
550             	3.13935676e+02
551             	3.13935686e+02
552             	3.13935697e+02
553             	3.13935707e+02
554             	3.13935715e+02
555             	3.13935723e+02
556             	3.13935730e+02
557             	3.13935737e+02
558             	3.13935745e+02
559             	3.13935751e+02
560             	3.13935757e+02
561             	3.13935765e+02
562             	3.13935773e+02
563             	3.13935781e+02
564             	3.13935790e+02
565             	3.13935800e+02
566             	3.13935808e+02
567             	3.13935816e+02
568             	3.13935826e+02
569             	3.13935836e+02
570             	3.13935845e+02
571             	3.13935853e+02
572             	3.13935860e+02
573             	3.13935865e+02
574             	3.13935870e+02
575             	3.13935875e+02
576             	3.13935882e+02
577             	3.13935890e+02
578             	3.13935898e+02
579             	3.13935905e+02
580             	3.13935912e+02
581             	3.13935918e+02
582             	3.13935922e+02
583             	3.13935926e+02
584             	3.13935930e+02
585             	3.13935933e+02
586             	3.13935936e+02
587             	3.13935939e+02
588             	3.13935944e+02
589             	3.13935949e+02
590             	3.13935956e+02
591             	3.13935965e+02
592             	3.13935976e+02
593             	3.13935986e+02
594             	3.13935997e+02
595             	3.13936007e+02
596             	3.13936015e+02
597             	3.13936021e+02
598             	3.13936027e+02
599             	3.13936031e+02
600             	3.13936034e+02
601             	3.13936038e+02
602             	3.13936042e+02
603             	3.13936048e+02
604             	3.13936053e+02
605             	3.13936059e+02
606             	3.13936065e+02
607             	3.13936071e+02
608             	3.13936076e+02
609             	3.13936082e+02
610             	3.13936088e+02
611             	3.13936094e+02
612             	3.13936098e+02
613             	3.13936103e+02
614             	3.13936106e+02
615             	3.13936110e+02
616             	3.13936114e+02
617             	3.13936120e+02
618             	3.13936125e+02
619             	3.13936131e+02
620             	3.13936137e+02
621             	3.13936143e+02
622             	3.13936149e+02
623             	3.13936154e+02
624             	3.13936159e+02
625             	3.13936164e+02
626             	3.13936168e+02
627             	3.13936170e+02
628             	3.13936173e+02
629             	3.13936175e+02
630             	3.13936177e+02
631             	3.13936179e+02
632             	3.13936182e+02
633             	3.13936186e+02
634             	3.13936189e+02
635             	3.13936193e+02
636             	3.13936198e+02
637             	3.13936202e+02
638             	3.13936207e+02
639             	3.13936208e+02
640             	3.13936210e+02
641             	3.13936210e+02
642             	3.13936210e+02
643             	3.13936209e+02
644             	3.13936208e+02
645             	3.13936208e+02
646             	3.13936209e+02
647             	3.13936210e+02
648             	3.13936212e+02
649             	3.13936214e+02
650             	3.13936217e+02
651             	3.13936219e+02
652             	3.13936221e+02
653             	3.13936223e+02
654             	3.13936224e+02
655             	3.13936225e+02
656             	3.13936226e+02
657             	3.13936227e+02
658             	3.13936227e+02
659             	3.13936228e+02
660             	3.13936228e+02
661             	3.13936229e+02
662             	3.13936230e+02
663             	3.13936232e+02
664             	3.13936234e+02
665             	3.13936236e+02
666             	3.13936238e+02
667             	3.13936241e+02
668             	3.13936244e+02
669             	3.13936246e+02
670             	3.13936249e+02
671             	3.13936252e+02
672             	3.13936254e+02
673             	3.13936257e+02
674             	3.13936260e+02
675             	3.13936263e+02
676             	3.13936265e+02
677             	3.13936268e+02
678             	3.13936270e+02
679             	3.13936271e+02
680             	3.13936272e+02
681             	3.13936272e+02
682             	3.13936272e+02
683             	3.13936272e+02
684             	3.13936272e+02
685             	3.13936272e+02
686             	3.13936273e+02
687             	3.13936275e+02
688             	3.13936277e+02
689             	3.13936279e+02
690             	3.13936280e+02
691             	3.13936281e+02
692             	3.13936282e+02
693             	3.13936283e+02
694             	3.13936284e+02
695             	3.13936285e+02
696             	3.13936287e+02
697             	3.13936288e+02
698             	3.13936289e+02
699             	3.13936290e+02
700             	3.13936290e+02
701             	3.13936291e+02
702             	3.13936291e+02
703             	3.13936292e+02
704             	3.13936293e+02
705             	3.13936294e+02
706             	3.13936296e+02
707             	3.13936299e+02
708             	3.13936301e+02
709             	3.13936302e+02
710             	3.13936304e+02
711             	3.13936306e+02
712             	3.13936308e+02
713             	3.13936310e+02
714             	3.13936312e+02
715             	3.13936313e+02
716             	3.13936314e+02
717             	3.13936314e+02
718             	3.13936315e+02
719             	3.13936315e+02
720             	3.13936315e+02
721             	3.13936315e+02
722             	3.13936315e+02
723             	3.13936314e+02
724             	3.13936314e+02
725             	3.13936313e+02
726             	3.13936313e+02
727             	3.13936313e+02
728             	3.13936314e+02
729             	3.13936314e+02
730             	3.13936315e+02
731             	3.13936316e+02
732             	3.13936317e+02
733             	3.13936319e+02
734             	3.13936320e+02
735             	3.13936321e+02
736             	3.13936322e+02
737             	3.13936323e+02
738             	3.13936323e+02
739             	3.13936324e+02
740             	3.13936324e+02
741             	3.13936325e+02
742             	3.13936325e+02
743             	3.13936325e+02
744             	3.13936326e+02
745             	3.13936326e+02
746             	3.13936328e+02
747             	3.13936330e+02
748             	3.13936332e+02
749             	3.13936334e+02
750             	3.13936336e+02
751             	3.13936338e+02
752             	3.13936340e+02
753             	3.13936341e+02
754             	3.13936341e+02
755             	3.13936341e+02
756             	3.13936341e+02
757             	3.13936340e+02
758             	3.13936339e+02
759             	3.13936338e+02
760             	3.13936337e+02
761             	3.13936336e+02
762             	3.13936336e+02
763             	3.13936336e+02
764             	3.13936336e+02
765             	3.13936337e+02
766             	3.13936337e+02
767             	3.13936338e+02
768             	3.13936338e+02
769             	3.13936339e+02
770             	3.13936339e+02
771             	3.13936341e+02
772             	3.13936342e+02
773             	3.13936344e+02
774             	3.13936345e+02
775             	3.13936347e+02
776             	3.13936349e+02
777             	3.13936350e+02
778             	3.13936352e+02
779             	3.13936353e+02
780             	3.13936354e+02
781             	3.13936354e+02
782             	3.13936354e+02
783             	3.13936353e+02
784             	3.13936352e+02
785             	3.13936350e+02
786             	3.13936349e+02
787             	3.13936348e+02
788             	3.13936347e+02
789             	3.13936345e+02
790             	3.13936345e+02
791             	3.13936344e+02
792             	3.13936344e+02
793             	3.13936343e+02
794             	3.13936344e+02
795             	3.13936344e+02
796             	3.13936344e+02
797             	3.13936344e+02
798             	3.13936344e+02
799             	3.13936343e+02
800             	3.13936343e+02
801             	3.13936342e+02
802             	3.13936341e+02
803             	3.13936341e+02
804             	3.13936341e+02
805             	3.13936342e+02
806             	3.13936342e+02
807             	3.13936343e+02
808             	3.13936344e+02
809             	3.13936345e+02
810             	3.13936346e+02
811             	3.13936348e+02
812             	3.13936349e+02
813             	3.13936350e+02
814             	3.13936350e+02
815             	3.13936351e+02
816             	3.13936351e+02
817             	3.13936350e+02
818             	3.13936350e+02
819             	3.13936349e+02
820             	3.13936349e+02
821             	3.13936349e+02
822             	3.13936349e+02
823             	3.13936349e+02
824             	3.13936349e+02
825             	3.13936349e+02
826             	3.13936349e+02
827             	3.13936348e+02
828             	3.13936347e+02
829             	3.13936346e+02
830             	3.13936345e+02
831             	3.13936344e+02
832             	3.13936344e+02
833             	3.13936345e+02
834             	3.13936345e+02
835             	3.13936346e+02
836             	3.13936347e+02
837             	3.13936348e+02
838             	3.13936349e+02
839             	3.13936351e+02
840             	3.13936353e+02
841             	3.13936354e+02
842             	3.13936354e+02
843             	3.13936354e+02
844             	3.13936354e+02
845             	3.13936354e+02
846             	3.13936353e+02
847             	3.13936353e+02
848             	3.13936353e+02
849             	3.13936354e+02
850             	3.13936355e+02
851             	3.13936356e+02
852             	3.13936357e+02
853             	3.13936359e+02
854             	3.13936360e+02
855             	3.13936361e+02
856             	3.13936363e+02
857             	3.13936363e+02
858             	3.13936364e+02
859             	3.13936364e+02
860             	3.13936365e+02
861             	3.13936366e+02
862             	3.13936366e+02
863             	3.13936367e+02
864             	3.13936368e+02
865             	3.13936368e+02
866             	3.13936368e+02
867             	3.13936368e+02
868             	3.13936367e+02
869             	3.13936367e+02
870             	3.13936366e+02
871             	3.13936365e+02
872             	3.13936364e+02
873             	3.13936363e+02
874             	3.13936362e+02
875             	3.13936362e+02
876             	3.13936362e+02
877             	3.13936362e+02
878             	3.13936362e+02
879             	3.13936363e+02
880             	3.13936364e+02
881             	3.13936364e+02
882             	3.13936365e+02
883             	3.13936365e+02
884             	3.13936365e+02
885             	3.13936365e+02
886             	3.13936365e+02
887             	3.13936365e+02
888             	3.13936364e+02
889             	3.13936364e+02
890             	3.13936364e+02
891             	3.13936363e+02
892             	3.13936363e+02
893             	3.13936363e+02
894             	3.13936363e+02
895             	3.13936363e+02
896             	3.13936363e+02
897             	3.13936363e+02
898             	3.13936362e+02
899             	3.13936362e+02
900             	3.13936362e+02
901             	3.13936362e+02
902             	3.13936362e+02
903             	3.13936362e+02
904             	3.13936363e+02
905             	3.13936363e+02
906             	3.13936363e+02
907             	3.13936363e+02
908             	3.13936364e+02
909             	3.13936364e+02
910             	3.13936364e+02
911             	3.13936365e+02
912             	3.13936365e+02
913             	3.13936365e+02
914             	3.13936365e+02
915             	3.13936365e+02
916             	3.13936365e+02
917             	3.13936365e+02
918             	3.13936365e+02
919             	3.13936365e+02
920             	3.13936365e+02
921             	3.13936364e+02
922             	3.13936364e+02
923             	3.13936364e+02
924             	3.13936364e+02
925             	3.13936364e+02
926             	3.13936364e+02
927             	3.13936364e+02
928             	3.13936364e+02
929             	3.13936364e+02
930             	3.13936365e+02
931             	3.13936365e+02
932             	3.13936365e+02
933             	3.13936365e+02