# Region        : cellZone fluid
# Cells         : 8544
# Volume        : 1.63253508e+01
# Time          	volAverage(T)
1               	2.99999888e+02
2               	2.99999894e+02
3               	3.00000227e+02
4               	3.00000671e+02
5               	3.00000979e+02
6               	3.00001258e+02
7               	3.00001628e+02
8               	3.00002109e+02
9               	3.00002611e+02
10              	3.00003098e+02
11              	3.00003893e+02
12              	3.00004603e+02
13              	3.00005662e+02
14              	3.00006529e+02
15              	3.00007624e+02
16              	3.00008591e+02
17              	3.00009723e+02
18              	3.00010544e+02
19              	3.00011381e+02
20              	3.00012625e+02
21              	3.00013975e+02
22              	3.00015926e+02
23              	3.00017029e+02
24              	3.00018268e+02
25              	3.00018998e+02
26              	3.00020421e+02
27              	3.00022006e+02
28              	3.00023587e+02
29              	3.00024662e+02
30              	3.00025611e+02
31              	3.00026923e+02
32              	3.00028093e+02
33              	3.00029379e+02
34              	3.00032056e+02
35              	3.00033379e+02
36              	3.00035419e+02
37              	3.00036743e+02
38              	3.00038066e+02
39              	3.00039240e+02
40              	3.00040479e+02
41              	3.00041426e+02
42              	3.00042191e+02
43              	3.00043811e+02
44              	3.00046011e+02
45              	3.00047380e+02
46              	3.00048296e+02
47              	3.00049030e+02
48              	3.00050115e+02
49              	3.00052109e+02
50              	3.00053823e+02
51              	3.00055277e+02
52              	3.00057182e+02
53              	3.00058916e+02
54              	3.00060455e+02
55              	3.00062309e+02
56              	3.00063312e+02
57              	3.00063976e+02
58              	3.00065570e+02
59              	3.00066540e+02
60              	3.00067664e+02
61              	3.00068696e+02
62              	3.00070211e+02
63              	3.00071103e+02
64              	3.00072276e+02
65              	3.00073248e+02
66              	3.00075313e+02
67              	3.00076671e+02
68              	3.00078057e+02
69              	3.00079522e+02
70              	3.00081754e+02
71              	3.00083508e+02
72              	3.00084578e+02
73              	3.00086028e+02
74              	3.00087341e+02
75              	3.00088807e+02
76              	3.00090375e+02
77              	3.00091412e+02
78              	3.00092635e+02
79              	3.00093522e+02
80              	3.00094338e+02
81              	3.00095332e+02
82              	3.00096411e+02
83              	3.00098374e+02
84              	3.00099093e+02
85              	3.00100759e+02
86              	3.00102603e+02
87              	3.00104607e+02
88              	3.00105861e+02
89              	3.00106408e+02
90              	3.00106636e+02
91              	3.00107645e+02
92              	3.00108480e+02
93              	3.00109107e+02
94              	3.00109653e+02
95              	3.00110207e+02
96              	3.00111006e+02
97              	3.00112181e+02
98              	3.00112745e+02
99              	3.00113320e+02
100             	3.00114311e+02
101             	3.00115366e+02
102             	3.00116357e+02
103             	3.00116823e+02
104             	3.00117469e+02
105             	3.00118404e+02
106             	3.00119045e+02
107             	3.00119734e+02
108             	3.00120102e+02
109             	3.00121350e+02
110             	3.00122735e+02
111             	3.00123485e+02
112             	3.00124663e+02
113             	3.00125473e+02
114             	3.00126215e+02
115             	3.00126715e+02
116             	3.00127146e+02
117             	3.00127628e+02
118             	3.00128396e+02
119             	3.00129569e+02
120             	3.00130770e+02
121             	3.00131608e+02
122             	3.00132522e+02
123             	3.00133673e+02
124             	3.00134618e+02
125             	3.00135497e+02
126             	3.00136433e+02
127             	3.00136937e+02
128             	3.00137319e+02
129             	3.00137902e+02
130             	3.00138604e+02
131             	3.00139088e+02
132             	3.00139502e+02
133             	3.00139770e+02
134             	3.00140053e+02
135             	3.00141172e+02
136             	3.00141542e+02
137             	3.00141906e+02
138             	3.00142163e+02
139             	3.00142434e+02
140             	3.00142700e+02
141             	3.00142982e+02
142             	3.00143275e+02
143             	3.00143657e+02
144             	3.00144166e+02
145             	3.00144797e+02
146             	3.00144938e+02
147             	3.00145597e+02
148             	3.00146314e+02
149             	3.00146972e+02
150             	3.00147603e+02
151             	3.00148293e+02
152             	3.00148994e+02
153             	3.00149723e+02
154             	3.00150468e+02
155             	3.00151276e+02
156             	3.00152091e+02
157             	3.00152939e+02
158             	3.00153758e+02
159             	3.00154481e+02
160             	3.00155161e+02
161             	3.00155699e+02
162             	3.00156262e+02
163             	3.00156931e+02
164             	3.00157650e+02
165             	3.00158145e+02
166             	3.00158653e+02
167             	3.00159122e+02
168             	3.00159593e+02
169             	3.00160064e+02
170             	3.00160528e+02
171             	3.00161025e+02
172             	3.00161536e+02
173             	3.00162026e+02
174             	3.00162100e+02
175             	3.00162549e+02
176             	3.00162909e+02
177             	3.00163152e+02
178             	3.00163375e+02
179             	3.00163546e+02
180             	3.00163635e+02
181             	3.00163676e+02
182             	3.00163775e+02
183             	3.00163816e+02
184             	3.00164022e+02
185             	3.00164123e+02
186             	3.00164150e+02
187             	3.00164153e+02
188             	3.00164183e+02
189             	3.00164145e+02
190             	3.00164112e+02
191             	3.00164092e+02
192             	3.00164086e+02
193             	3.00164117e+02
194             	3.00164127e+02
195             	3.00164070e+02
196             	3.00164047e+02
197             	3.00164131e+02
198             	3.00164205e+02
199             	3.00164102e+02
200             	3.00164253e+02
201             	3.00164413e+02
202             	3.00164555e+02
203             	3.00164690e+02
204             	3.00164830e+02
205             	3.00164996e+02
206             	3.00165194e+02
207             	3.00165438e+02
208             	3.00165769e+02
209             	3.00166071e+02
210             	3.00166386e+02
211             	3.00166749e+02
212             	3.00167147e+02
213             	3.00167552e+02
214             	3.00167938e+02
215             	3.00168304e+02
216             	3.00168629e+02
217             	3.00168963e+02
218             	3.00169242e+02
219             	3.00169523e+02
220             	3.00169755e+02
221             	3.00169969e+02
222             	3.00170155e+02
223             	3.00170305e+02
224             	3.00170470e+02
225             	3.00170617e+02
226             	3.00170739e+02
227             	3.00170835e+02
228             	3.00170844e+02
229             	3.00170869e+02
230             	3.00170881e+02
231             	3.00170830e+02
232             	3.00170786e+02
233             	3.00170801e+02
234             	3.00170816e+02
235             	3.00170681e+02
236             	3.00170588e+02
237             	3.00170502e+02
238             	3.00170452e+02
239             	3.00170412e+02
240             	3.00170397e+02
241             	3.00170307e+02
242             	3.00170028e+02
243             	3.00169975e+02
244             	3.00169894e+02
245             	3.00169835e+02
246             	3.00169832e+02
247             	3.00169861e+02
248             	3.00169912e+02
249             	3.00170010e+02
250             	3.00170205e+02
251             	3.00170399e+02
252             	3.00170592e+02
253             	3.00170785e+02
254             	3.00171118e+02
255             	3.00171352e+02
256             	3.00171617e+02
257             	3.00171927e+02
258             	3.00172228e+02
259             	3.00172561e+02
260             	3.00172858e+02
261             	3.00173156e+02
262             	3.00173437e+02
263             	3.00173760e+02
264             	3.00174083e+02
265             	3.00174352e+02
266             	3.00174643e+02
267             	3.00174873e+02
268             	3.00174921e+02
269             	3.00175140e+02
270             	3.00175302e+02
271             	3.00175408e+02
272             	3.00175440e+02
273             	3.00175503e+02
274             	3.00175500e+02
275             	3.00175550e+02
276             	3.00175550e+02
277             	3.00175430e+02
278             	3.00175315e+02
279             	3.00175198e+02
280             	3.00175075e+02
281             	3.00174969e+02
282             	3.00174901e+02
283             	3.00174896e+02
284             	3.00174897e+02
285             	3.00174905e+02
286             	3.00174974e+02
287             	3.00175049e+02
288             	3.00175038e+02
289             	3.00175200e+02
290             	3.00175280e+02
291             	3.00175453e+02
292             	3.00175740e+02
293             	3.00176049e+02
294             	3.00176329e+02
295             	3.00176650e+02
296             	3.00176980e+02
297             	3.00177303e+02
298             	3.00177582e+02
299             	3.00177817e+02
300             	3.00178075e+02
301             	3.00178303e+02
302             	3.00178446e+02
303             	3.00178616e+02
304             	3.00178820e+02
305             	3.00179041e+02
306             	3.00179186e+02
307             	3.00179347e+02
308             	3.00179587e+02
309             	3.00179789e+02
310             	3.00179964e+02
311             	3.00180098e+02
312             	3.00180222e+02
313             	3.00180329e+02
314             	3.00180408e+02
315             	3.00180453e+02
316             	3.00180446e+02
317             	3.00180410e+02
318             	3.00180357e+02
319             	3.00180310e+02
320             	3.00180248e+02
321             	3.00180074e+02
322             	3.00179932e+02
323             	3.00179784e+02
324             	3.00179623e+02
325             	3.00179468e+02
326             	3.00179340e+02
327             	3.00179251e+02
328             	3.00179244e+02
329             	3.00179312e+02
330             	3.00179504e+02
331             	3.00179603e+02
332             	3.00179700e+02
333             	3.00179821e+02
334             	3.00179965e+02
335             	3.00180124e+02
336             	3.00180318e+02
337             	3.00180566e+02
338             	3.00180820e+02
339             	3.00181069e+02
340             	3.00181308e+02
341             	3.00181565e+02
342             	3.00181852e+02
343             	3.00182176e+02
344             	3.00182449e+02
345             	3.00182742e+02
346             	3.00182954e+02
347             	3.00183233e+02
348             	3.00183500e+02
349             	3.00183705e+02
350             	3.00183955e+02
351             	3.00184217e+02
352             	3.00184445e+02
353             	3.00184642e+02
354             	3.00184851e+02
355             	3.00185028e+02
356             	3.00185176e+02
357             	3.00185296e+02
358             	3.00185377e+02
359             	3.00185412e+02
360             	3.00185402e+02
361             	3.00185351e+02
362             	3.00185268e+02
363             	3.00185162e+02
364             	3.00185133e+02
365             	3.00184993e+02
366             	3.00184834e+02
367             	3.00184658e+02
368             	3.00184452e+02
369             	3.00184284e+02
370             	3.00184138e+02
371             	3.00184002e+02
372             	3.00183988e+02
373             	3.00184004e+02
374             	3.00184026e+02
375             	3.00184028e+02
376             	3.00184007e+02
377             	3.00184018e+02
378             	3.00184054e+02
379             	3.00184114e+02
380             	3.00184170e+02
381             	3.00184294e+02
382             	3.00184417e+02
383             	3.00184548e+02
384             	3.00184708e+02
385             	3.00184909e+02
386             	3.00185151e+02
387             	3.00185405e+02
388             	3.00185681e+02
389             	3.00185958e+02
390             	3.00186193e+02
391             	3.00186480e+02
392             	3.00186724e+02
393             	3.00186875e+02
394             	3.00187028e+02
395             	3.00187318e+02
396             	3.00187482e+02
397             	3.00187687e+02
398             	3.00187905e+02
399             	3.00188053e+02
400             	3.00188238e+02
401             	3.00188420e+02
402             	3.00188499e+02
403             	3.00188559e+02
404             	3.00188588e+02
405             	3.00188538e+02
406             	3.00188407e+02
407             	3.00188230e+02
408             	3.00188011e+02
409             	3.00187745e+02
410             	3.00187533e+02
411             	3.00187344e+02
412             	3.00187216e+02
413             	3.00187154e+02
414             	3.00187112e+02
415             	3.00187083e+02
416             	3.00187109e+02
417             	3.00187103e+02
418             	3.00187161e+02
419             	3.00187285e+02
420             	3.00187408e+02
421             	3.00187467e+02
422             	3.00187513e+02
423             	3.00187695e+02
424             	3.00187844e+02
425             	3.00187989e+02
426             	3.00188164e+02
427             	3.00188354e+02
428             	3.00188573e+02
429             	3.00188820e+02
430             	3.00188969e+02
431             	3.00189158e+02
432             	3.00189269e+02
433             	3.00189326e+02
434             	3.00189462e+02
435             	3.00189543e+02
436             	3.00189653e+02
437             	3.00189717e+02
438             	3.00189786e+02
439             	3.00189898e+02
440             	3.00189949e+02
441             	3.00190001e+02
442             	3.00190092e+02
443             	3.00190156e+02
444             	3.00190222e+02
445             	3.00190279e+02
446             	3.00190283e+02
447             	3.00190257e+02
448             	3.00190206e+02
449             	3.00190120e+02
450             	3.00190006e+02
451             	3.00189840e+02
452             	3.00189614e+02
453             	3.00189395e+02
454             	3.00189151e+02
455             	3.00188902e+02
456             	3.00188663e+02
457             	3.00188515e+02
458             	3.00188427e+02
459             	3.00188485e+02
460             	3.00188551e+02
461             	3.00188604e+02
462             	3.00188628e+02
463             	3.00188715e+02
464             	3.00188808e+02
465             	3.00188923e+02
466             	3.00189080e+02
467             	3.00189214e+02
468             	3.00189385e+02
469             	3.00189538e+02
470             	3.00189655e+02
471             	3.00189769e+02
472             	3.00189925e+02
473             	3.00190119e+02
474             	3.00190268e+02
475             	3.00190444e+02
476             	3.00190605e+02
477             	3.00190734e+02
478             	3.00190898e+02
479             	3.00191023e+02
480             	3.00191168e+02
481             	3.00191327e+02
482             	3.00191483e+02
483             	3.00191593e+02
484             	3.00191704e+02
485             	3.00191847e+02
486             	3.00191966e+02
487             	3.00192031e+02
488             	3.00192060e+02
489             	3.00192076e+02
490             	3.00192054e+02
491             	3.00191974e+02
492             	3.00191836e+02
493             	3.00191657e+02
494             	3.00191444e+02
495             	3.00191335e+02
496             	3.00191150e+02
497             	3.00190957e+02
498             	3.00190821e+02
499             	3.00190852e+02
500             	3.00190788e+02
501             	3.00190640e+02
502             	3.00190587e+02
503             	3.00190470e+02
504             	3.00190441e+02
505             	3.00190375e+02
506             	3.00190416e+02
507             	3.00190390e+02
508             	3.00190401e+02
509             	3.00190429e+02
510             	3.00190506e+02
511             	3.00190596e+02
512             	3.00190694e+02
513             	3.00190810e+02
514             	3.00190961e+02
515             	3.00191153e+02
516             	3.00191350e+02
517             	3.00191573e+02
518             	3.00191748e+02
519             	3.00191981e+02
520             	3.00192185e+02
521             	3.00192435e+02
522             	3.00192699e+02
523             	3.00192939e+02
524             	3.00193204e+02
525             	3.00193430e+02
526             	3.00193640e+02
527             	3.00193852e+02
528             	3.00194089e+02
529             	3.00194308e+02
530             	3.00194521e+02
531             	3.00194652e+02
532             	3.00194787e+02
533             	3.00194860e+02
534             	3.00194907e+02
535             	3.00194836e+02
536             	3.00194695e+02
537             	3.00194484e+02
538             	3.00194237e+02
539             	3.00193956e+02
540             	3.00193701e+02
541             	3.00193462e+02
542             	3.00193253e+02
543             	3.00193090e+02
544             	3.00192957e+02
545             	3.00192871e+02
546             	3.00192738e+02
547             	3.00192670e+02
548             	3.00192548e+02
549             	3.00192607e+02
550             	3.00192606e+02
551             	3.00192632e+02
552             	3.00192784e+02
553             	3.00192855e+02
554             	3.00193000e+02
555             	3.00193150e+02
556             	3.00193292e+02
557             	3.00193444e+02
558             	3.00193623e+02
559             	3.00193825e+02
560             	3.00194054e+02
561             	3.00194276e+02
562             	3.00194475e+02
563             	3.00194644e+02
564             	3.00194798e+02
565             	3.00194954e+02
566             	3.00195052e+02
567             	3.00195144e+02
568             	3.00195235e+02
569             	3.00195290e+02
570             	3.00195329e+02
571             	3.00195363e+02
572             	3.00195413e+02
573             	3.00195471e+02
574             	3.00195469e+02
575             	3.00195426e+02
576             	3.00195358e+02
577             	3.00195259e+02
578             	3.00195099e+02
579             	3.00194873e+02
580             	3.00194602e+02
581             	3.00194323e+02
582             	3.00194030e+02
583             	3.00193793e+02
584             	3.00193637e+02
585             	3.00193524e+02
586             	3.00193390e+02
587             	3.00193342e+02
588             	3.00193209e+02
589             	3.00193195e+02
590             	3.00193142e+02
591             	3.00193218e+02
592             	3.00193335e+02
593             	3.00193477e+02
594             	3.00193684e+02
595             	3.00193903e+02
596             	3.00194079e+02
597             	3.00194259e+02
598             	3.00194335e+02
599             	3.00194550e+02
600             	3.00194729e+02
601             	3.00194928e+02
602             	3.00195021e+02
603             	3.00195184e+02
604             	3.00195272e+02
605             	3.00195371e+02
606             	3.00195552e+02
607             	3.00195663e+02
608             	3.00195841e+02
609             	3.00195934e+02
610             	3.00196083e+02
611             	3.00196174e+02
612             	3.00196232e+02
613             	3.00196250e+02
614             	3.00196277e+02
615             	3.00196265e+02
616             	3.00196219e+02
617             	3.00196151e+02
618             	3.00196068e+02
619             	3.00195936e+02
620             	3.00195758e+02
621             	3.00195539e+02
622             	3.00195266e+02
623             	3.00194976e+02
624             	3.00194694e+02
625             	3.00194399e+02
626             	3.00194075e+02
627             	3.00193764e+02
628             	3.00193510e+02
629             	3.00193356e+02
630             	3.00193242e+02
631             	3.00193246e+02
632             	3.00193361e+02
633             	3.00193517e+02
634             	3.00193825e+02
635             	3.00194092e+02
636             	3.00194456e+02
637             	3.00194860e+02
638             	3.00195244e+02
639             	3.00195583e+02
640             	3.00195868e+02
641             	3.00196113e+02
642             	3.00196339e+02
643             	3.00196568e+02
644             	3.00196777e+02
645             	3.00197018e+02
646             	3.00197118e+02
647             	3.00197254e+02
648             	3.00197351e+02
649             	3.00197408e+02
650             	3.00197481e+02
651             	3.00197546e+02
652             	3.00197614e+02
653             	3.00197701e+02
654             	3.00197779e+02
655             	3.00197797e+02
656             	3.00197840e+02
657             	3.00197897e+02
658             	3.00197903e+02
659             	3.00197931e+02
660             	3.00197907e+02
661             	3.00197858e+02
662             	3.00197788e+02
663             	3.00197701e+02
664             	3.00197554e+02
665             	3.00197369e+02
666             	3.00197147e+02
667             	3.00196936e+02
668             	3.00196735e+02
669             	3.00196569e+02
670             	3.00196321e+02
671             	3.00196188e+02
672             	3.00196001e+02
673             	3.00196109e+02
674             	3.00196128e+02
675             	3.00196271e+02
676             	3.00196361e+02
677             	3.00196514e+02
678             	3.00196680e+02
679             	3.00196875e+02
680             	3.00197073e+02
681             	3.00197242e+02
682             	3.00197386e+02
683             	3.00197380e+02
684             	3.00197553e+02
685             	3.00197711e+02
686             	3.00197930e+02
687             	3.00198064e+02
688             	3.00198252e+02
689             	3.00198471e+02
690             	3.00198641e+02
691             	3.00198871e+02
692             	3.00198960e+02
693             	3.00199056e+02
694             	3.00199103e+02
695             	3.00199101e+02
696             	3.00199094e+02
697             	3.00199005e+02
698             	3.00198917e+02
699             	3.00198787e+02
700             	3.00198647e+02
701             	3.00198472e+02
702             	3.00198297e+02
703             	3.00198199e+02
704             	3.00198050e+02
705             	3.00197823e+02
706             	3.00197586e+02
707             	3.00197323e+02
708             	3.00197033e+02
709             	3.00196723e+02
710             	3.00196434e+02
711             	3.00196173e+02
712             	3.00196017e+02
713             	3.00195851e+02
714             	3.00195890e+02
715             	3.00195849e+02
716             	3.00195726e+02
717             	3.00195680e+02
718             	3.00195644e+02
719             	3.00195627e+02
720             	3.00195719e+02
721             	3.00195749e+02
722             	3.00195868e+02
723             	3.00196065e+02
724             	3.00196218e+02
725             	3.00196422e+02
726             	3.00196543e+02
727             	3.00196661e+02
728             	3.00196786e+02
729             	3.00196809e+02
730             	3.00197031e+02
731             	3.00197063e+02
732             	3.00197109e+02
733             	3.00197035e+02
734             	3.00197000e+02
735             	3.00197035e+02
736             	3.00197167e+02
737             	3.00197139e+02
738             	3.00197144e+02
739             	3.00197204e+02
740             	3.00197311e+02
741             	3.00197407e+02
742             	3.00197536e+02
743             	3.00197607e+02
744             	3.00197665e+02
745             	3.00197629e+02
746             	3.00197346e+02
747             	3.00197247e+02
748             	3.00197193e+02
749             	3.00197062e+02
750             	3.00196829e+02
751             	3.00196596e+02
752             	3.00196333e+02
753             	3.00196016e+02
754             	3.00195703e+02
755             	3.00195331e+02
756             	3.00194957e+02
757             	3.00194606e+02
758             	3.00194305e+02
759             	3.00194019e+02
760             	3.00193817e+02
761             	3.00193731e+02
762             	3.00193844e+02
763             	3.00194146e+02
764             	3.00194476e+02
765             	3.00194863e+02
766             	3.00195195e+02
767             	3.00195518e+02
768             	3.00195755e+02
769             	3.00196010e+02
770             	3.00196182e+02
771             	3.00196348e+02
772             	3.00196534e+02
773             	3.00196667e+02
774             	3.00196832e+02
775             	3.00196989e+02
776             	3.00197096e+02
777             	3.00197221e+02
778             	3.00197380e+02
779             	3.00197559e+02
780             	3.00197691e+02
781             	3.00197775e+02
782             	3.00197599e+02
783             	3.00197533e+02
784             	3.00197455e+02
785             	3.00197419e+02
786             	3.00197352e+02
787             	3.00197280e+02
788             	3.00197186e+02
789             	3.00197062e+02
790             	3.00196899e+02
791             	3.00196764e+02
792             	3.00196506e+02
793             	3.00196121e+02
794             	3.00195877e+02
795             	3.00195460e+02
796             	3.00195144e+02
797             	3.00194905e+02
798             	3.00194768e+02
799             	3.00194807e+02
800             	3.00194869e+02
801             	3.00194983e+02
802             	3.00195164e+02
803             	3.00195311e+02
804             	3.00195256e+02
805             	3.00195479e+02
806             	3.00195641e+02
807             	3.00195839e+02
808             	3.00196007e+02
809             	3.00196133e+02
810             	3.00196271e+02
811             	3.00196377e+02
812             	3.00196562e+02
813             	3.00196674e+02
814             	3.00196840e+02
815             	3.00196947e+02
816             	3.00197071e+02
817             	3.00197150e+02
818             	3.00197293e+02
819             	3.00197369e+02
820             	3.00197441e+02
821             	3.00197491e+02
822             	3.00197498e+02
823             	3.00197573e+02
824             	3.00197507e+02
825             	3.00197471e+02
826             	3.00197434e+02
827             	3.00197279e+02
828             	3.00197136e+02
829             	3.00197018e+02
830             	3.00196958e+02
831             	3.00196810e+02
832             	3.00196616e+02
833             	3.00196412e+02
834             	3.00196198e+02
835             	3.00195968e+02
836             	3.00195703e+02
837             	3.00195419e+02
838             	3.00195074e+02
839             	3.00194781e+02
840             	3.00194490e+02
841             	3.00194231e+02
842             	3.00194072e+02
843             	3.00193994e+02
844             	3.00194161e+02
845             	3.00194311e+02
846             	3.00194352e+02
847             	3.00194388e+02
848             	3.00194504e+02
849             	3.00194583e+02
850             	3.00194739e+02
851             	3.00194887e+02
852             	3.00194995e+02
853             	3.00195110e+02
854             	3.00195174e+02
855             	3.00195292e+02
856             	3.00195393e+02
857             	3.00195477e+02
858             	3.00195598e+02
859             	3.00195641e+02
860             	3.00195721e+02
861             	3.00195797e+02
862             	3.00195896e+02
863             	3.00195917e+02
864             	3.00196040e+02
865             	3.00196107e+02
866             	3.00196220e+02
867             	3.00196320e+02
868             	3.00196346e+02
869             	3.00196397e+02
870             	3.00196451e+02
871             	3.00196538e+02
872             	3.00196531e+02
873             	3.00196557e+02
874             	3.00196532e+02
875             	3.00196534e+02
876             	3.00196459e+02
877             	3.00196350e+02
878             	3.00196214e+02
879             	3.00196073e+02
880             	3.00195911e+02
881             	3.00195643e+02
882             	3.00195311e+02
883             	3.00194978e+02
884             	3.00194633e+02
885             	3.00194291e+02
886             	3.00194016e+02
887             	3.00193776e+02
888             	3.00193589e+02
889             	3.00193349e+02
890             	3.00193136e+02
891             	3.00192969e+02
892             	3.00192914e+02
893             	3.00193016e+02
894             	3.00193245e+02
895             	3.00193608e+02
896             	3.00193992e+02
897             	3.00194340e+02
898             	3.00194619e+02
899             	3.00194863e+02
900             	3.00195156e+02
901             	3.00195408e+02
902             	3.00195573e+02
903             	3.00195883e+02
904             	3.00196034e+02
905             	3.00196175e+02
906             	3.00196242e+02
907             	3.00196313e+02
908             	3.00196413e+02
909             	3.00196490e+02
910             	3.00196565e+02
911             	3.00196651e+02
912             	3.00196742e+02
913             	3.00196793e+02
914             	3.00196858e+02
915             	3.00196905e+02
916             	3.00196914e+02
917             	3.00196908e+02
918             	3.00196906e+02
919             	3.00196928e+02
920             	3.00196936e+02
921             	3.00196840e+02
922             	3.00196718e+02
923             	3.00196578e+02
924             	3.00196435e+02
925             	3.00196315e+02
926             	3.00196170e+02
927             	3.00195993e+02
928             	3.00195788e+02
929             	3.00195682e+02
930             	3.00195651e+02
931             	3.00195553e+02
932             	3.00195498e+02
933             	3.00195351e+02