# Region        : cellZone pcb
# Cells         : 695
# Volume        : 1.37345407e+00
# Time          	volAverage(T)
1               	3.00005011e+02
2               	3.00014512e+02
3               	3.00027695e+02
4               	3.00044448e+02
5               	3.00063361e+02
6               	3.00084753e+02
7               	3.00108797e+02
8               	3.00135922e+02
9               	3.00165211e+02
10              	3.00196918e+02
11              	3.00231410e+02
12              	3.00268899e+02
13              	3.00307022e+02
14              	3.00346568e+02
15              	3.00388298e+02
16              	3.00431999e+02
17              	3.00477576e+02
18              	3.00525477e+02
19              	3.00575125e+02
20              	3.00625733e+02
21              	3.00678302e+02
22              	3.00731580e+02
23              	3.00786056e+02
24              	3.00842029e+02
25              	3.00898881e+02
26              	3.00956502e+02
27              	3.01015403e+02
28              	3.01075111e+02
29              	3.01136275e+02
30              	3.01198595e+02
31              	3.01262321e+02
32              	3.01325765e+02
33              	3.01391019e+02
34              	3.01455571e+02
35              	3.01521513e+02
36              	3.01587304e+02
37              	3.01653223e+02
38              	3.01719681e+02
39              	3.01787142e+02
40              	3.01855164e+02
41              	3.01924167e+02
42              	3.01994020e+02
43              	3.02064612e+02
44              	3.02136334e+02
45              	3.02209231e+02
46              	3.02282291e+02
47              	3.02354862e+02
48              	3.02427421e+02
49              	3.02498523e+02
50              	3.02570367e+02
51              	3.02641727e+02
52              	3.02712906e+02
53              	3.02784808e+02
54              	3.02856950e+02
55              	3.02929570e+02
56              	3.03002532e+02
57              	3.03075407e+02
58              	3.03148456e+02
59              	3.03222131e+02
60              	3.03295331e+02
61              	3.03366050e+02
62              	3.03437344e+02
63              	3.03506985e+02
64              	3.03576293e+02
65              	3.03645119e+02
66              	3.03714221e+02
67              	3.03784228e+02
68              	3.03854814e+02
69              	3.03925675e+02
70              	3.03996795e+02
71              	3.04068348e+02
72              	3.04138322e+02
73              	3.04207287e+02
74              	3.04275842e+02
75              	3.04344311e+02
76              	3.04412345e+02
77              	3.04480322e+02
78              	3.04548271e+02
79              	3.04616226e+02
80              	3.04683783e+02
81              	3.04751096e+02
82              	3.04818288e+02
83              	3.04883999e+02
84              	3.04948912e+02
85              	3.05013110e+02
86              	3.05076744e+02
87              	3.05139506e+02
88              	3.05201684e+02
89              	3.05263591e+02
90              	3.05325162e+02
91              	3.05386498e+02
92              	3.05447997e+02
93              	3.05509750e+02
94              	3.05571506e+02
95              	3.05633698e+02
96              	3.05696105e+02
97              	3.05758202e+02
98              	3.05819646e+02
99              	3.05880426e+02
100             	3.05940705e+02
101             	3.06000596e+02
102             	3.06060023e+02
103             	3.06118850e+02
104             	3.06176918e+02
105             	3.06234407e+02
106             	3.06291408e+02
107             	3.06347951e+02
108             	3.06403946e+02
109             	3.06458934e+02
110             	3.06513923e+02
111             	3.06568316e+02
112             	3.06622358e+02
113             	3.06675769e+02
114             	3.06728779e+02
115             	3.06781365e+02
116             	3.06833567e+02
117             	3.06885145e+02
118             	3.06936697e+02
119             	3.06988037e+02
120             	3.07038838e+02
121             	3.07088798e+02
122             	3.07138022e+02
123             	3.07186912e+02
124             	3.07235919e+02
125             	3.07284178e+02
126             	3.07332218e+02
127             	3.07379934e+02
128             	3.07427201e+02
129             	3.07474086e+02
130             	3.07520531e+02
131             	3.07566307e+02
132             	3.07611795e+02
133             	3.07657510e+02
134             	3.07702940e+02
135             	3.07747881e+02
136             	3.07792251e+02
137             	3.07836018e+02
138             	3.07879260e+02
139             	3.07922182e+02
140             	3.07964562e+02
141             	3.08005814e+02
142             	3.08047198e+02
143             	3.08087723e+02
144             	3.08127904e+02
145             	3.08167648e+02
146             	3.08207405e+02
147             	3.08247108e+02
148             	3.08286078e+02
149             	3.08324607e+02
150             	3.08363229e+02
151             	3.08401613e+02
152             	3.08439557e+02
153             	3.08477137e+02
154             	3.08514383e+02
155             	3.08550793e+02
156             	3.08586701e+02
157             	3.08622606e+02
158             	3.08657899e+02
159             	3.08692814e+02
160             	3.08727221e+02
161             	3.08761298e+02
162             	3.08794957e+02
163             	3.08828706e+02
164             	3.08862433e+02
165             	3.08895914e+02
166             	3.08929083e+02
167             	3.08962001e+02
168             	3.08994700e+02
169             	3.09027258e+02
170             	3.09059000e+02
171             	3.09090226e+02
172             	3.09121060e+02
173             	3.09151634e+02
174             	3.09182020e+02
175             	3.09212218e+02
176             	3.09242094e+02
177             	3.09271719e+02
178             	3.09301109e+02
179             	3.09330176e+02
180             	3.09358859e+02
181             	3.09387150e+02
182             	3.09415141e+02
183             	3.09442521e+02
184             	3.09469393e+02
185             	3.09495973e+02
186             	3.09522316e+02
187             	3.09548451e+02
188             	3.09574307e+02
189             	3.09599990e+02
190             	3.09625539e+02
191             	3.09650940e+02
192             	3.09676204e+02
193             	3.09701367e+02
194             	3.09726765e+02
195             	3.09751941e+02
196             	3.09776867e+02
197             	3.09801598e+02
198             	3.09826229e+02
199             	3.09850661e+02
200             	3.09874849e+02
201             	3.09898651e+02
202             	3.09922158e+02
203             	3.09945312e+02
204             	3.09968104e+02
205             	3.09990509e+02
206             	3.10012658e+02
207             	3.10034558e+02
208             	3.10056046e+02
209             	3.10077262e+02
210             	3.10098428e+02
211             	3.10119533e+02
212             	3.10140455e+02
213             	3.10161092e+02
214             	3.10181457e+02
215             	3.10201333e+02
216             	3.10221064e+02
217             	3.10240356e+02
218             	3.10259375e+02
219             	3.10278254e+02
220             	3.10297024e+02
221             	3.10315724e+02
222             	3.10334347e+02
223             	3.10352938e+02
224             	3.10371478e+02
225             	3.10389984e+02
226             	3.10408249e+02
227             	3.10426601e+02
228             	3.10445080e+02
229             	3.10463526e+02
230             	3.10481885e+02
231             	3.10500081e+02
232             	3.10518102e+02
233             	3.10535908e+02
234             	3.10553323e+02
235             	3.10570408e+02
236             	3.10587229e+02
237             	3.10603840e+02
238             	3.10620180e+02
239             	3.10636280e+02
240             	3.10652185e+02
241             	3.10667911e+02
242             	3.10683445e+02
243             	3.10698757e+02
244             	3.10713865e+02
245             	3.10728818e+02
246             	3.10743548e+02
247             	3.10758158e+02
248             	3.10772600e+02
249             	3.10786910e+02
250             	3.10801098e+02
251             	3.10815190e+02
252             	3.10829188e+02
253             	3.10843101e+02
254             	3.10856942e+02
255             	3.10870715e+02
256             	3.10884427e+02
257             	3.10898107e+02
258             	3.10911722e+02
259             	3.10925259e+02
260             	3.10938722e+02
261             	3.10952117e+02
262             	3.10965423e+02
263             	3.10978621e+02
264             	3.10991721e+02
265             	3.11004722e+02
266             	3.11017598e+02
267             	3.11030358e+02
268             	3.11043006e+02
269             	3.11055533e+02
270             	3.11067933e+02
271             	3.11080210e+02
272             	3.11092358e+02
273             	3.11104371e+02
274             	3.11116252e+02
275             	3.11127990e+02
276             	3.11139649e+02
277             	3.11151209e+02
278             	3.11162663e+02
279             	3.11173993e+02
280             	3.11185235e+02
281             	3.11196381e+02
282             	3.11207426e+02
283             	3.11218376e+02
284             	3.11229238e+02
285             	3.11240016e+02
286             	3.11250714e+02
287             	3.11261323e+02
288             	3.11271863e+02
289             	3.11282334e+02
290             	3.11292737e+02
291             	3.11303077e+02
292             	3.11313366e+02
293             	3.11323632e+02
294             	3.11333814e+02
295             	3.11343921e+02
296             	3.11353966e+02
297             	3.11363973e+02
298             	3.11373906e+02
299             	3.11383762e+02
300             	3.11393543e+02
301             	3.11403252e+02
302             	3.11412893e+02
303             	3.11422470e+02
304             	3.11431981e+02
305             	3.11441424e+02
306             	3.11450798e+02
307             	3.11460106e+02
308             	3.11469349e+02
309             	3.11478530e+02
310             	3.11487639e+02
311             	3.11496689e+02
312             	3.11505672e+02
313             	3.11514586e+02
314             	3.11523430e+02
315             	3.11532207e+02
316             	3.11540920e+02
317             	3.11549576e+02
318             	3.11558167e+02
319             	3.11566682e+02
320             	3.11575183e+02
321             	3.11583649e+02
322             	3.11592063e+02
323             	3.11600419e+02
324             	3.11608713e+02
325             	3.11616942e+02
326             	3.11625099e+02
327             	3.11633190e+02
328             	3.11641236e+02
329             	3.11649210e+02
330             	3.11657120e+02
331             	3.11665001e+02
332             	3.11672833e+02
333             	3.11680637e+02
334             	3.11688398e+02
335             	3.11696128e+02
336             	3.11703828e+02
337             	3.11711494e+02
338             	3.11719128e+02
339             	3.11726736e+02
340             	3.11734319e+02
341             	3.11741879e+02
342             	3.11749415e+02
343             	3.11756936e+02
344             	3.11764436e+02
345             	3.11771907e+02
346             	3.11779347e+02
347             	3.11786751e+02
348             	3.11794118e+02
349             	3.11801444e+02
350             	3.11808728e+02
351             	3.11815968e+02
352             	3.11823166e+02
353             	3.11830324e+02
354             	3.11837429e+02
355             	3.11844511e+02
356             	3.11851560e+02
357             	3.11858578e+02
358             	3.11865559e+02
359             	3.11872501e+02
360             	3.11879403e+02
361             	3.11886262e+02
362             	3.11893081e+02
363             	3.11899860e+02
364             	3.11906615e+02
365             	3.11913334e+02
366             	3.11920014e+02
367             	3.11926668e+02
368             	3.11933299e+02
369             	3.11939903e+02
370             	3.11946486e+02
371             	3.11953047e+02
372             	3.11959587e+02
373             	3.11966105e+02
374             	3.11972604e+02
375             	3.11979082e+02
376             	3.11985542e+02
377             	3.11991981e+02
378             	3.11998418e+02
379             	3.12004823e+02
380             	3.12011195e+02
381             	3.12017531e+02
382             	3.12023859e+02
383             	3.12030179e+02
384             	3.12036487e+02
385             	3.12042778e+02
386             	3.12049048e+02
387             	3.12055290e+02
388             	3.12061514e+02
389             	3.12067721e+02
390             	3.12073909e+02
391             	3.12080077e+02
392             	3.12086222e+02
393             	3.12092342e+02
394             	3.12098436e+02
395             	3.12104505e+02
396             	3.12110548e+02
397             	3.12116568e+02
398             	3.12122563e+02
399             	3.12128532e+02
400             	3.12134482e+02
401             	3.12140413e+02
402             	3.12146322e+02
403             	3.12152212e+02
404             	3.12158080e+02
405             	3.12163928e+02
406             	3.12169753e+02
407             	3.12175569e+02
408             	3.12181373e+02
409             	3.12187161e+02
410             	3.12192938e+02
411             	3.12198702e+02
412             	3.12204444e+02
413             	3.12210182e+02
414             	3.12215910e+02
415             	3.12221626e+02
416             	3.12227332e+02
417             	3.12233029e+02
418             	3.12238715e+02
419             	3.12244390e+02
420             	3.12250054e+02
421             	3.12255708e+02
422             	3.12261338e+02
423             	3.12266946e+02
424             	3.12272535e+02
425             	3.12278107e+02
426             	3.12283664e+02
427             	3.12289201e+02
428             	3.12294717e+02
429             	3.12300210e+02
430             	3.12305681e+02
431             	3.12311135e+02
432             	3.12316571e+02
433             	3.12321986e+02
434             	3.12327377e+02
435             	3.12332748e+02
436             	3.12338099e+02
437             	3.12343449e+02
438             	3.12348769e+02
439             	3.12354063e+02
440             	3.12359340e+02
441             	3.12364605e+02
442             	3.12369861e+02
443             	3.12375108e+02
444             	3.12380352e+02
445             	3.12385592e+02
446             	3.12390831e+02
447             	3.12396067e+02
448             	3.12401292e+02
449             	3.12406504e+02
450             	3.12411699e+02
451             	3.12416884e+02
452             	3.12422057e+02
453             	3.12427215e+02
454             	3.12432357e+02
455             	3.12437484e+02
456             	3.12442594e+02
457             	3.12447687e+02
458             	3.12452763e+02
459             	3.12457825e+02
460             	3.12462872e+02
461             	3.12467906e+02
462             	3.12472925e+02
463             	3.12477927e+02
464             	3.12482911e+02
465             	3.12487874e+02
466             	3.12492806e+02
467             	3.12497744e+02
468             	3.12502676e+02
469             	3.12507595e+02
470             	3.12512499e+02
471             	3.12517387e+02
472             	3.12522255e+02
473             	3.12527106e+02
474             	3.12531942e+02
475             	3.12536764e+02
476             	3.12541572e+02
477             	3.12546366e+02
478             	3.12551148e+02
479             	3.12555915e+02
480             	3.12560675e+02
481             	3.12565423e+02
482             	3.12570160e+02
483             	3.12574887e+02
484             	3.12579603e+02
485             	3.12584305e+02
486             	3.12588995e+02
487             	3.12593671e+02
488             	3.12598325e+02
489             	3.12602960e+02
490             	3.12607580e+02
491             	3.12612181e+02
492             	3.12616766e+02
493             	3.12621346e+02
494             	3.12625903e+02
495             	3.12630440e+02
496             	3.12634962e+02
497             	3.12639469e+02
498             	3.12643964e+02
499             	3.12648450e+02
500             	3.12652923e+02
501             	3.12657383e+02
502             	3.12661831e+02
503             	3.12666267e+02
504             	3.12670691e+02
505             	3.12675103e+02
506             	3.12679502e+02
507             	3.12683888e+02
508             	3.12688263e+02
509             	3.12692622e+02
510             	3.12696966e+02
511             	3.12701298e+02
512             	3.12705618e+02
513             	3.12709926e+02
514             	3.12714221e+02
515             	3.12718503e+02
516             	3.12722768e+02
517             	3.12727019e+02
518             	3.12731235e+02
519             	3.12735450e+02
520             	3.12739657e+02
521             	3.12743850e+02
522             	3.12748025e+02
523             	3.12752181e+02
524             	3.12756316e+02
525             	3.12760433e+02
526             	3.12764531e+02
527             	3.12768602e+02
528             	3.12772651e+02
529             	3.12776680e+02
530             	3.12780691e+02
531             	3.12784685e+02
532             	3.12788667e+02
533             	3.12792635e+02
534             	3.12796599e+02
535             	3.12800545e+02
536             	3.12804472e+02
537             	3.12808387e+02
538             	3.12812289e+02
539             	3.12816181e+02
540             	3.12820063e+02
541             	3.12823939e+02
542             	3.12827815e+02
543             	3.12831681e+02
544             	3.12835534e+02
545             	3.12839378e+02
546             	3.12843210e+02
547             	3.12847031e+02
548             	3.12850838e+02
549             	3.12854627e+02
550             	3.12858396e+02
551             	3.12862154e+02
552             	3.12865898e+02
553             	3.12869629e+02
554             	3.12873346e+02
555             	3.12877044e+02
556             	3.12880721e+02
557             	3.12884375e+02
558             	3.12888006e+02
559             	3.12891609e+02
560             	3.12895195e+02
561             	3.12898761e+02
562             	3.12902309e+02
563             	3.12905836e+02
564             	3.12909345e+02
565             	3.12912836e+02
566             	3.12916309e+02
567             	3.12919770e+02
568             	3.12923216e+02
569             	3.12926648e+02
570             	3.12930068e+02
571             	3.12933466e+02
572             	3.12936843e+02
573             	3.12940204e+02
574             	3.12943550e+02
575             	3.12946893e+02
576             	3.12950217e+02
577             	3.12953521e+02
578             	3.12956809e+02
579             	3.12960083e+02
580             	3.12963338e+02
581             	3.12966592e+02
582             	3.12969840e+02
583             	3.12973079e+02
584             	3.12976300e+02
585             	3.12979503e+02
586             	3.12982688e+02
587             	3.12985851e+02
588             	3.12988997e+02
589             	3.12992128e+02
590             	3.12995245e+02
591             	3.12998351e+02
592             	3.13001438e+02
593             	3.13004507e+02
594             	3.13007561e+02
595             	3.13010603e+02
596             	3.13013630e+02
597             	3.13016639e+02
598             	3.13019629e+02
599             	3.13022600e+02
600             	3.13025554e+02
601             	3.13028490e+02
602             	3.13031410e+02
603             	3.13034315e+02
604             	3.13037208e+02
605             	3.13040086e+02
606             	3.13042949e+02
607             	3.13045793e+02
608             	3.13048620e+02
609             	3.13051430e+02
610             	3.13054224e+02
611             	3.13057001e+02
612             	3.13059762e+02
613             	3.13062509e+02
614             	3.13065242e+02
615             	3.13067965e+02
616             	3.13070681e+02
617             	3.13073390e+02
618             	3.13076089e+02
619             	3.13078770e+02
620             	3.13081437e+02
621             	3.13084090e+02
622             	3.13086731e+02
623             	3.13089354e+02
624             	3.13091957e+02
625             	3.13094542e+02
626             	3.13097112e+02
627             	3.13099670e+02
628             	3.13102215e+02
629             	3.13104743e+02
630             	3.13107255e+02
631             	3.13109754e+02
632             	3.13112242e+02
633             	3.13114715e+02
634             	3.13117175e+02
635             	3.13119621e+02
636             	3.13122050e+02
637             	3.13124456e+02
638             	3.13126840e+02
639             	3.13129209e+02
640             	3.13131564e+02
641             	3.13133907e+02
642             	3.13136238e+02
643             	3.13138564e+02
644             	3.13140883e+02
645             	3.13143190e+02
646             	3.13145486e+02
647             	3.13147768e+02
648             	3.13150032e+02
649             	3.13152279e+02
650             	3.13154512e+02
651             	3.13156729e+02
652             	3.13158934e+02
653             	3.13161126e+02
654             	3.13163304e+02
655             	3.13165467e+02
656             	3.13167619e+02
657             	3.13169760e+02
658             	3.13171884e+02
659             	3.13173988e+02
660             	3.13176074e+02
661             	3.13178147e+02
662             	3.13180205e+02
663             	3.13182246e+02
664             	3.13184273e+02
665             	3.13186282e+02
666             	3.13188277e+02
667             	3.13190258e+02
668             	3.13192227e+02
669             	3.13194180e+02
670             	3.13196120e+02
671             	3.13198046e+02
672             	3.13199959e+02
673             	3.13201859e+02
674             	3.13203749e+02
675             	3.13205625e+02
676             	3.13207491e+02
677             	3.13209345e+02
678             	3.13211187e+02
679             	3.13213018e+02
680             	3.13214838e+02
681             	3.13216648e+02
682             	3.13218447e+02
683             	3.13220236e+02
684             	3.13222015e+02
685             	3.13223782e+02
686             	3.13225538e+02
687             	3.13227283e+02
688             	3.13229014e+02
689             	3.13230732e+02
690             	3.13232436e+02
691             	3.13234129e+02
692             	3.13235808e+02
693             	3.13237476e+02
694             	3.13239130e+02
695             	3.13240771e+02
696             	3.13242399e+02
697             	3.13244014e+02
698             	3.13245617e+02
699             	3.13247207e+02
700             	3.13248785e+02
701             	3.13250352e+02
702             	3.13251906e+02
703             	3.13253450e+02
704             	3.13254982e+02
705             	3.13256502e+02
706             	3.13258011e+02
707             	3.13259508e+02
708             	3.13260992e+02
709             	3.13262465e+02
710             	3.13263926e+02
711             	3.13265375e+02
712             	3.13266813e+02
713             	3.13268240e+02
714             	3.13269655e+02
715             	3.13271060e+02
716             	3.13272454e+02
717             	3.13273838e+02
718             	3.13275212e+02
719             	3.13276577e+02
720             	3.13277932e+02
721             	3.13279278e+02
722             	3.13280615e+02
723             	3.13281941e+02
724             	3.13283258e+02
725             	3.13284567e+02
726             	3.13285865e+02
727             	3.13287154e+02
728             	3.13288433e+02
729             	3.13289702e+02
730             	3.13290963e+02
731             	3.13292214e+02
732             	3.13293455e+02
733             	3.13294688e+02
734             	3.13295912e+02
735             	3.13297126e+02
736             	3.13298332e+02
737             	3.13299529e+02
738             	3.13300717e+02
739             	3.13301896e+02
740             	3.13303065e+02
741             	3.13304222e+02
742             	3.13305371e+02
743             	3.13306511e+02
744             	3.13307640e+02
745             	3.13308760e+02
746             	3.13309871e+02
747             	3.13310971e+02
748             	3.13312064e+02
749             	3.13313149e+02
750             	3.13314224e+02
751             	3.13315292e+02
752             	3.13316352e+02
753             	3.13317403e+02
754             	3.13318448e+02
755             	3.13319484e+02
756             	3.13320513e+02
757             	3.13321536e+02
758             	3.13322551e+02
759             	3.13323557e+02
760             	3.13324557e+02
761             	3.13325550e+02
762             	3.13326534e+02
763             	3.13327512e+02
764             	3.13328483e+02
765             	3.13329445e+02
766             	3.13330402e+02
767             	3.13331351e+02
768             	3.13332292e+02
769             	3.13333227e+02
770             	3.13334156e+02
771             	3.13335075e+02
772             	3.13335989e+02
773             	3.13336896e+02
774             	3.13337794e+02
775             	3.13338686e+02
776             	3.13339572e+02
777             	3.13340450e+02
778             	3.13341322e+02
779             	3.13342186e+02
780             	3.13343042e+02
781             	3.13343893e+02
782             	3.13344736e+02
783             	3.13345571e+02
784             	3.13346401e+02
785             	3.13347224e+02
786             	3.13348040e+02
787             	3.13348851e+02
788             	3.13349656e+02
789             	3.13350453e+02
790             	3.13351245e+02
791             	3.13352032e+02
792             	3.13352810e+02
793             	3.13353585e+02
794             	3.13354353e+02
795             	3.13355115e+02
796             	3.13355873e+02
797             	3.13356625e+02
798             	3.13357370e+02
799             	3.13358111e+02
800             	3.13358847e+02
801             	3.13359576e+02
802             	3.13360301e+02
803             	3.13361022e+02
804             	3.13361735e+02
805             	3.13362444e+02
806             	3.13363148e+02
807             	3.13363845e+02
808             	3.13364538e+02
809             	3.13365226e+02
810             	3.13365906e+02
811             	3.13366584e+02
812             	3.13367257e+02
813             	3.13367923e+02
814             	3.13368586e+02
815             	3.13369245e+02
816             	3.13369896e+02
817             	3.13370545e+02
818             	3.13371192e+02
819             	3.13371829e+02
820             	3.13372463e+02
821             	3.13373092e+02
822             	3.13373714e+02
823             	3.13374332e+02
824             	3.13374946e+02
825             	3.13375554e+02
826             	3.13376158e+02
827             	3.13376758e+02
828             	3.13377353e+02
829             	3.13377945e+02
830             	3.13378533e+02
831             	3.13379114e+02
832             	3.13379693e+02
833             	3.13380268e+02
834             	3.13380838e+02
835             	3.13381404e+02
836             	3.13381967e+02
837             	3.13382524e+02
838             	3.13383077e+02
839             	3.13383627e+02
840             	3.13384171e+02
841             	3.13384713e+02
842             	3.13385251e+02
843             	3.13385783e+02
844             	3.13386312e+02
845             	3.13386838e+02
846             	3.13387358e+02
847             	3.13387875e+02
848             	3.13388388e+02
849             	3.13388895e+02
850             	3.13389400e+02
851             	3.13389900e+02
852             	3.13390395e+02
853             	3.13390887e+02
854             	3.13391378e+02
855             	3.13391863e+02
856             	3.13392345e+02
857             	3.13392826e+02
858             	3.13393300e+02
859             	3.13393773e+02
860             	3.13394243e+02
861             	3.13394706e+02
862             	3.13395167e+02
863             	3.13395625e+02
864             	3.13396079e+02
865             	3.13396530e+02
866             	3.13396978e+02
867             	3.13397421e+02
868             	3.13397862e+02
869             	3.13398300e+02
870             	3.13398733e+02
871             	3.13399164e+02
872             	3.13399593e+02
873             	3.13400016e+02
874             	3.13400438e+02
875             	3.13400858e+02
876             	3.13401273e+02
877             	3.13401686e+02
878             	3.13402098e+02
879             	3.13402503e+02
880             	3.13402907e+02
881             	3.13403308e+02
882             	3.13403704e+02
883             	3.13404098e+02
884             	3.13404490e+02
885             	3.13404876e+02
886             	3.13405261e+02
887             	3.13405643e+02
888             	3.13406020e+02
889             	3.13406395e+02
890             	3.13406768e+02
891             	3.13407136e+02
892             	3.13407503e+02
893             	3.13407868e+02
894             	3.13408227e+02
895             	3.13408585e+02
896             	3.13408942e+02
897             	3.13409294e+02
898             	3.13409645e+02
899             	3.13409995e+02
900             	3.13410339e+02
901             	3.13410683e+02
902             	3.13411025e+02
903             	3.13411361e+02
904             	3.13411697e+02
905             	3.13412030e+02
906             	3.13412358e+02
907             	3.13412685e+02
908             	3.13413010e+02
909             	3.13413330e+02
910             	3.13413650e+02
911             	3.13413968e+02
912             	3.13414280e+02
913             	3.13414592e+02
914             	3.13414901e+02
915             	3.13415206e+02
916             	3.13415510e+02
917             	3.13415812e+02
918             	3.13416110e+02
919             	3.13416408e+02
920             	3.13416704e+02
921             	3.13416996e+02
922             	3.13417287e+02
923             	3.13417577e+02
924             	3.13417860e+02
925             	3.13418144e+02
926             	3.13418426e+02
927             	3.13418703e+02
928             	3.13418979e+02
929             	3.13419253e+02
930             	3.13419522e+02
931             	3.13419791e+02
932             	3.13420058e+02
933             	3.13420321e+02