# Region        : cellZone pcb
# Cells         : 791
# Volume        : 1.54645214e+00
# Time          	volAverage(T)
1               	3.00005195e+02
2               	3.00015156e+02
3               	3.00029131e+02
4               	3.00046666e+02
5               	3.00065976e+02
6               	3.00087237e+02
7               	3.00111091e+02
8               	3.00137887e+02
9               	3.00168001e+02
10              	3.00199297e+02
11              	3.00234064e+02
12              	3.00268582e+02
13              	3.00304559e+02
14              	3.00342452e+02
15              	3.00382573e+02
16              	3.00423426e+02
17              	3.00465865e+02
18              	3.00509250e+02
19              	3.00553422e+02
20              	3.00600966e+02
21              	3.00648906e+02
22              	3.00695605e+02
23              	3.00743057e+02
24              	3.00790087e+02
25              	3.00841269e+02
26              	3.00894308e+02
27              	3.00945373e+02
28              	3.00996047e+02
29              	3.01045055e+02
30              	3.01092793e+02
31              	3.01141713e+02
32              	3.01192811e+02
33              	3.01244037e+02
34              	3.01293955e+02
35              	3.01341979e+02
36              	3.01388988e+02
37              	3.01438605e+02
38              	3.01489373e+02
39              	3.01542748e+02
40              	3.01598571e+02
41              	3.01656266e+02
42              	3.01711942e+02
43              	3.01767948e+02
44              	3.01820236e+02
45              	3.01870009e+02
46              	3.01917822e+02
47              	3.01968666e+02
48              	3.02019090e+02
49              	3.02068397e+02
50              	3.02117647e+02
51              	3.02169763e+02
52              	3.02224455e+02
53              	3.02277140e+02
54              	3.02328696e+02
55              	3.02379556e+02
56              	3.02428811e+02
57              	3.02474622e+02
58              	3.02525895e+02
59              	3.02575419e+02
60              	3.02621796e+02
61              	3.02668900e+02
62              	3.02718309e+02
63              	3.02771045e+02
64              	3.02825809e+02
65              	3.02878814e+02
66              	3.02927917e+02
67              	3.02976094e+02
68              	3.03025174e+02
69              	3.03071863e+02
70              	3.03119010e+02
71              	3.03173047e+02
72              	3.03223431e+02
73              	3.03266700e+02
74              	3.03308399e+02
75              	3.03348288e+02
76              	3.03385358e+02
77              	3.03423614e+02
78              	3.03462409e+02
79              	3.03502615e+02
80              	3.03541600e+02
81              	3.03578835e+02
82              	3.03613511e+02
83              	3.03648191e+02
84              	3.03685823e+02
85              	3.03724453e+02
86              	3.03763124e+02
87              	3.03802702e+02
88              	3.03842059e+02
89              	3.03883835e+02
90              	3.03926379e+02
91              	3.03965711e+02
92              	3.04003698e+02
93              	3.04044311e+02
94              	3.04082784e+02
95              	3.04118677e+02
96              	3.04154750e+02
97              	3.04191289e+02
98              	3.04229326e+02
99              	3.04268172e+02
100             	3.04305388e+02
101             	3.04342318e+02
102             	3.04380010e+02
103             	3.04419567e+02
104             	3.04456668e+02
105             	3.04494892e+02
106             	3.04531220e+02
107             	3.04568723e+02
108             	3.04604861e+02
109             	3.04640698e+02
110             	3.04677514e+02
111             	3.04715599e+02
112             	3.04754705e+02
113             	3.04794691e+02
114             	3.04833381e+02
115             	3.04871703e+02
116             	3.04908230e+02
117             	3.04944636e+02
118             	3.04982040e+02
119             	3.05014902e+02
120             	3.05051541e+02
121             	3.05086010e+02
122             	3.05118245e+02
123             	3.05150764e+02
124             	3.05183513e+02
125             	3.05217288e+02
126             	3.05251678e+02
127             	3.05283981e+02
128             	3.05315083e+02
129             	3.05346648e+02
130             	3.05379261e+02
131             	3.05411818e+02
132             	3.05445027e+02
133             	3.05479055e+02
134             	3.05514631e+02
135             	3.05550462e+02
136             	3.05584306e+02
137             	3.05616126e+02
138             	3.05648510e+02
139             	3.05680619e+02
140             	3.05711709e+02
141             	3.05743774e+02
142             	3.05776777e+02
143             	3.05810493e+02
144             	3.05843663e+02
145             	3.05876568e+02
146             	3.05908673e+02
147             	3.05940878e+02
148             	3.05971479e+02
149             	3.06001855e+02
150             	3.06032740e+02
151             	3.06064482e+02
152             	3.06094692e+02
153             	3.06124762e+02
154             	3.06155974e+02
155             	3.06183423e+02
156             	3.06210277e+02
157             	3.06236925e+02
158             	3.06263563e+02
159             	3.06290475e+02
160             	3.06319007e+02
161             	3.06347365e+02
162             	3.06375883e+02
163             	3.06403887e+02
164             	3.06430992e+02
165             	3.06458548e+02
166             	3.06485167e+02
167             	3.06511224e+02
168             	3.06537850e+02
169             	3.06566357e+02
170             	3.06593508e+02
171             	3.06620417e+02
172             	3.06647033e+02
173             	3.06673557e+02
174             	3.06700576e+02
175             	3.06727346e+02
176             	3.06754647e+02
177             	3.06781964e+02
178             	3.06807594e+02
179             	3.06833458e+02
180             	3.06859142e+02
181             	3.06885520e+02
182             	3.06911198e+02
183             	3.06936153e+02
184             	3.06959664e+02
185             	3.06982810e+02
186             	3.07005945e+02
187             	3.07029942e+02
188             	3.07053482e+02
189             	3.07077086e+02
190             	3.07100424e+02
191             	3.07125209e+02
192             	3.07149215e+02
193             	3.07172766e+02
194             	3.07195174e+02
195             	3.07217822e+02
196             	3.07239899e+02
197             	3.07262113e+02
198             	3.07284205e+02
199             	3.07305250e+02
200             	3.07325284e+02
201             	3.07345079e+02
202             	3.07365037e+02
203             	3.07385350e+02
204             	3.07406478e+02
205             	3.07428608e+02
206             	3.07450096e+02
207             	3.07472878e+02
208             	3.07494847e+02
209             	3.07515940e+02
210             	3.07536133e+02
211             	3.07555776e+02
212             	3.07575088e+02
213             	3.07594185e+02
214             	3.07613005e+02
215             	3.07631767e+02
216             	3.07650541e+02
217             	3.07669612e+02
218             	3.07688299e+02
219             	3.07707110e+02
220             	3.07725994e+02
221             	3.07744808e+02
222             	3.07763295e+02
223             	3.07781457e+02
224             	3.07800071e+02
225             	3.07818327e+02
226             	3.07836402e+02
227             	3.07854259e+02
228             	3.07872205e+02
229             	3.07889798e+02
230             	3.07906949e+02
231             	3.07923663e+02
232             	3.07940151e+02
233             	3.07956451e+02
234             	3.07972606e+02
235             	3.07988610e+02
236             	3.08004710e+02
237             	3.08020917e+02
238             	3.08037561e+02
239             	3.08054005e+02
240             	3.08069907e+02
241             	3.08085752e+02
242             	3.08102088e+02
243             	3.08119046e+02
244             	3.08135127e+02
245             	3.08151407e+02
246             	3.08166602e+02
247             	3.08181189e+02
248             	3.08196153e+02
249             	3.08211983e+02
250             	3.08226262e+02
251             	3.08239378e+02
252             	3.08252262e+02
253             	3.08265221e+02
254             	3.08278339e+02
255             	3.08291781e+02
256             	3.08305476e+02
257             	3.08319179e+02
258             	3.08332715e+02
259             	3.08346146e+02
260             	3.08359403e+02
261             	3.08372602e+02
262             	3.08385617e+02
263             	3.08398546e+02
264             	3.08411311e+02
265             	3.08423991e+02
266             	3.08436556e+02
267             	3.08448992e+02
268             	3.08461474e+02
269             	3.08473832e+02
270             	3.08486090e+02
271             	3.08498208e+02
272             	3.08510341e+02
273             	3.08522397e+02
274             	3.08534491e+02
275             	3.08546311e+02
276             	3.08557904e+02
277             	3.08569446e+02
278             	3.08580925e+02
279             	3.08592685e+02
280             	3.08604141e+02
281             	3.08615332e+02
282             	3.08626339e+02
283             	3.08637093e+02
284             	3.08647598e+02
285             	3.08657909e+02
286             	3.08668083e+02
287             	3.08678180e+02
288             	3.08688256e+02
289             	3.08698222e+02
290             	3.08708307e+02
291             	3.08718350e+02
292             	3.08728350e+02
293             	3.08738335e+02
294             	3.08748293e+02
295             	3.08758286e+02
296             	3.08768129e+02
297             	3.08777930e+02
298             	3.08787610e+02
299             	3.08797130e+02
300             	3.08806461e+02
301             	3.08815542e+02
302             	3.08824458e+02
303             	3.08833275e+02
304             	3.08842001e+02
305             	3.08850668e+02
306             	3.08859306e+02
307             	3.08867899e+02
308             	3.08876492e+02
309             	3.08885155e+02
310             	3.08893620e+02
311             	3.08901826e+02
312             	3.08909864e+02
313             	3.08917802e+02
314             	3.08925695e+02
315             	3.08933607e+02
316             	3.08941564e+02
317             	3.08949573e+02
318             	3.08957578e+02
319             	3.08965498e+02
320             	3.08973375e+02
321             	3.08981280e+02
322             	3.08989118e+02
323             	3.08996650e+02
324             	3.09004093e+02
325             	3.09011496e+02
326             	3.09018795e+02
327             	3.09025901e+02
328             	3.09032876e+02
329             	3.09039737e+02
330             	3.09046471e+02
331             	3.09053190e+02
332             	3.09059666e+02
333             	3.09066138e+02
334             	3.09072432e+02
335             	3.09078611e+02
336             	3.09084901e+02
337             	3.09091061e+02
338             	3.09097119e+02
339             	3.09103130e+02
340             	3.09109137e+02
341             	3.09115151e+02
342             	3.09121192e+02
343             	3.09127330e+02
344             	3.09133519e+02
345             	3.09139791e+02
346             	3.09145961e+02
347             	3.09152094e+02
348             	3.09158193e+02
349             	3.09164300e+02
350             	3.09170375e+02
351             	3.09176415e+02
352             	3.09182374e+02
353             	3.09188143e+02
354             	3.09193673e+02
355             	3.09199207e+02
356             	3.09204449e+02
357             	3.09209698e+02
358             	3.09214840e+02
359             	3.09219909e+02
360             	3.09224978e+02
361             	3.09230091e+02
362             	3.09235279e+02
363             	3.09240421e+02
364             	3.09245504e+02
365             	3.09250545e+02
366             	3.09255537e+02
367             	3.09260467e+02
368             	3.09265300e+02
369             	3.09270095e+02
370             	3.09274676e+02
371             	3.09279070e+02
372             	3.09283344e+02
373             	3.09287587e+02
374             	3.09291823e+02
375             	3.09296137e+02
376             	3.09300551e+02
377             	3.09305069e+02
378             	3.09309527e+02
379             	3.09313993e+02
380             	3.09318526e+02
381             	3.09322897e+02
382             	3.09327330e+02
383             	3.09331850e+02
384             	3.09336294e+02
385             	3.09340627e+02
386             	3.09344822e+02
387             	3.09348863e+02
388             	3.09352778e+02
389             	3.09356620e+02
390             	3.09360243e+02
391             	3.09363657e+02
392             	3.09366986e+02
393             	3.09370185e+02
394             	3.09373478e+02
395             	3.09376686e+02
396             	3.09379866e+02
397             	3.09383073e+02
398             	3.09386312e+02
399             	3.09389656e+02
400             	3.09393169e+02
401             	3.09396685e+02
402             	3.09400234e+02
403             	3.09403729e+02
404             	3.09407208e+02
405             	3.09410645e+02
406             	3.09414093e+02
407             	3.09417494e+02
408             	3.09420838e+02
409             	3.09424169e+02
410             	3.09427378e+02
411             	3.09430569e+02
412             	3.09433562e+02
413             	3.09436580e+02
414             	3.09439586e+02
415             	3.09442541e+02
416             	3.09445476e+02
417             	3.09448389e+02
418             	3.09451211e+02
419             	3.09454081e+02
420             	3.09456760e+02
421             	3.09459478e+02
422             	3.09462047e+02
423             	3.09464542e+02
424             	3.09467018e+02
425             	3.09469500e+02
426             	3.09472012e+02
427             	3.09474586e+02
428             	3.09477233e+02
429             	3.09479738e+02
430             	3.09482341e+02
431             	3.09484844e+02
432             	3.09487405e+02
433             	3.09489933e+02
434             	3.09492315e+02
435             	3.09494561e+02
436             	3.09496712e+02
437             	3.09498988e+02
438             	3.09501077e+02
439             	3.09503088e+02
440             	3.09505092e+02
441             	3.09507116e+02
442             	3.09509179e+02
443             	3.09511341e+02
444             	3.09513560e+02
445             	3.09515796e+02
446             	3.09518051e+02
447             	3.09520283e+02
448             	3.09522526e+02
449             	3.09524658e+02
450             	3.09526688e+02
451             	3.09528722e+02
452             	3.09530777e+02
453             	3.09532994e+02
454             	3.09535162e+02
455             	3.09537244e+02
456             	3.09539266e+02
457             	3.09541250e+02
458             	3.09543195e+02
459             	3.09545132e+02
460             	3.09546915e+02
461             	3.09548595e+02
462             	3.09550244e+02
463             	3.09551879e+02
464             	3.09553537e+02
465             	3.09555302e+02
466             	3.09557035e+02
467             	3.09558756e+02
468             	3.09560460e+02
469             	3.09562103e+02
470             	3.09563790e+02
471             	3.09565486e+02
472             	3.09567169e+02
473             	3.09568836e+02
474             	3.09570496e+02
475             	3.09572150e+02
476             	3.09573795e+02
477             	3.09575446e+02
478             	3.09577078e+02
479             	3.09578716e+02
480             	3.09580317e+02
481             	3.09581896e+02
482             	3.09583463e+02
483             	3.09585025e+02
484             	3.09586577e+02
485             	3.09588059e+02
486             	3.09589438e+02
487             	3.09590781e+02
488             	3.09592090e+02
489             	3.09593385e+02
490             	3.09594702e+02
491             	3.09596111e+02
492             	3.09597520e+02
493             	3.09598929e+02
494             	3.09600327e+02
495             	3.09601733e+02
496             	3.09603128e+02
497             	3.09604532e+02
498             	3.09605919e+02
499             	3.09607297e+02
500             	3.09608645e+02
501             	3.09609966e+02
502             	3.09611247e+02
503             	3.09612511e+02
504             	3.09613752e+02
505             	3.09614963e+02
506             	3.09616151e+02
507             	3.09617301e+02
508             	3.09618432e+02
509             	3.09619553e+02
510             	3.09620642e+02
511             	3.09621704e+02
512             	3.09622743e+02
513             	3.09623774e+02
514             	3.09624784e+02
515             	3.09625794e+02
516             	3.09626795e+02
517             	3.09627789e+02
518             	3.09628768e+02
519             	3.09629768e+02
520             	3.09630771e+02
521             	3.09631749e+02
522             	3.09632737e+02
523             	3.09633737e+02
524             	3.09634752e+02
525             	3.09635776e+02
526             	3.09636679e+02
527             	3.09637669e+02
528             	3.09638662e+02
529             	3.09639643e+02
530             	3.09640588e+02
531             	3.09641534e+02
532             	3.09642466e+02
533             	3.09643385e+02
534             	3.09644287e+02
535             	3.09645177e+02
536             	3.09646046e+02
537             	3.09646897e+02
538             	3.09647662e+02
539             	3.09648455e+02
540             	3.09649168e+02
541             	3.09649921e+02
542             	3.09650616e+02
543             	3.09651284e+02
544             	3.09651986e+02
545             	3.09652753e+02
546             	3.09653519e+02
547             	3.09654282e+02
548             	3.09655042e+02
549             	3.09655790e+02
550             	3.09656524e+02
551             	3.09657256e+02
552             	3.09657980e+02
553             	3.09658686e+02
554             	3.09659377e+02
555             	3.09660067e+02
556             	3.09660735e+02
557             	3.09661367e+02
558             	3.09661965e+02
559             	3.09662581e+02
560             	3.09663167e+02
561             	3.09663710e+02
562             	3.09664236e+02
563             	3.09664753e+02
564             	3.09665275e+02
565             	3.09665742e+02
566             	3.09666189e+02
567             	3.09666660e+02
568             	3.09667219e+02
569             	3.09667823e+02
570             	3.09668444e+02
571             	3.09669071e+02
572             	3.09669703e+02
573             	3.09670338e+02
574             	3.09670976e+02
575             	3.09671593e+02
576             	3.09672205e+02
577             	3.09672804e+02
578             	3.09673385e+02
579             	3.09673938e+02
580             	3.09674468e+02
581             	3.09674962e+02
582             	3.09675423e+02
583             	3.09675859e+02
584             	3.09676276e+02
585             	3.09676681e+02
586             	3.09677076e+02
587             	3.09677476e+02
588             	3.09677873e+02
589             	3.09678251e+02
590             	3.09678625e+02
591             	3.09679013e+02
592             	3.09679419e+02
593             	3.09679830e+02
594             	3.09680246e+02
595             	3.09680663e+02
596             	3.09681087e+02
597             	3.09681514e+02
598             	3.09681944e+02
599             	3.09682383e+02
600             	3.09682824e+02
601             	3.09683277e+02
602             	3.09683716e+02
603             	3.09684153e+02
604             	3.09684573e+02
605             	3.09684978e+02
606             	3.09685374e+02
607             	3.09685756e+02
608             	3.09686108e+02
609             	3.09686432e+02
610             	3.09686718e+02
611             	3.09687007e+02
612             	3.09687302e+02
613             	3.09687596e+02
614             	3.09687892e+02
615             	3.09688194e+02
616             	3.09688503e+02
617             	3.09688820e+02
618             	3.09689129e+02
619             	3.09689436e+02
620             	3.09689752e+02
621             	3.09690072e+02
622             	3.09690393e+02
623             	3.09690716e+02
624             	3.09691037e+02
625             	3.09691350e+02
626             	3.09691644e+02
627             	3.09691929e+02
628             	3.09692197e+02
629             	3.09692468e+02
630             	3.09692746e+02
631             	3.09693018e+02
632             	3.09693292e+02
633             	3.09693582e+02
634             	3.09693856e+02
635             	3.09694112e+02
636             	3.09694361e+02
637             	3.09694602e+02
638             	3.09694828e+02
639             	3.09695036e+02
640             	3.09695227e+02
641             	3.09695411e+02
642             	3.09695589e+02
643             	3.09695789e+02
644             	3.09695911e+02
645             	3.09695993e+02
646             	3.09696086e+02
647             	3.09696213e+02
648             	3.09696424e+02
649             	3.09696679e+02
650             	3.09696974e+02
651             	3.09697284e+02
652             	3.09697558e+02
653             	3.09697814e+02
654             	3.09698077e+02
655             	3.09698340e+02
656             	3.09698604e+02
657             	3.09698892e+02
658             	3.09699178e+02
659             	3.09699413e+02
660             	3.09699598e+02
661             	3.09699765e+02
662             	3.09699924e+02
663             	3.09700074e+02
664             	3.09700243e+02
665             	3.09700368e+02
666             	3.09700477e+02
667             	3.09700589e+02
668             	3.09700693e+02
669             	3.09700806e+02
670             	3.09700955e+02
671             	3.09701083e+02
672             	3.09701197e+02
673             	3.09701312e+02
674             	3.09701435e+02
675             	3.09701572e+02
676             	3.09701719e+02
677             	3.09701871e+02
678             	3.09702026e+02
679             	3.09702200e+02
680             	3.09702382e+02
681             	3.09702571e+02
682             	3.09702752e+02
683             	3.09702930e+02
684             	3.09703084e+02
685             	3.09703238e+02
686             	3.09703455e+02
687             	3.09703703e+02
688             	3.09703961e+02
689             	3.09704214e+02
690             	3.09704423e+02
691             	3.09704642e+02
692             	3.09704804e+02
693             	3.09704954e+02
694             	3.09705064e+02
695             	3.09705149e+02
696             	3.09705216e+02
697             	3.09705274e+02
698             	3.09705317e+02
699             	3.09705356e+02
700             	3.09705389e+02
701             	3.09705411e+02
702             	3.09705435e+02
703             	3.09705445e+02
704             	3.09705436e+02
705             	3.09705483e+02
706             	3.09705573e+02
707             	3.09705693e+02
708             	3.09705833e+02
709             	3.09706003e+02
710             	3.09706183e+02
711             	3.09706383e+02
712             	3.09706593e+02
713             	3.09706801e+02
714             	3.09706994e+02
715             	3.09707159e+02
716             	3.09707297e+02
717             	3.09707414e+02
718             	3.09707530e+02
719             	3.09707628e+02
720             	3.09707673e+02
721             	3.09707780e+02
722             	3.09707894e+02
723             	3.09708007e+02
724             	3.09708128e+02
725             	3.09708238e+02
726             	3.09708355e+02
727             	3.09708472e+02
728             	3.09708589e+02
729             	3.09708708e+02
730             	3.09708834e+02
731             	3.09708964e+02
732             	3.09709084e+02
733             	3.09709201e+02
734             	3.09709328e+02
735             	3.09709452e+02
736             	3.09709555e+02
737             	3.09709635e+02
738             	3.09709702e+02
739             	3.09709758e+02
740             	3.09709807e+02
741             	3.09709852e+02
742             	3.09709899e+02
743             	3.09709952e+02
744             	3.09710023e+02
745             	3.09710101e+02
746             	3.09710187e+02
747             	3.09710278e+02
748             	3.09710376e+02
749             	3.09710478e+02
750             	3.09710574e+02
751             	3.09710654e+02
752             	3.09710742e+02
753             	3.09710819e+02
754             	3.09710879e+02
755             	3.09710917e+02
756             	3.09710927e+02
757             	3.09710915e+02
758             	3.09710882e+02
759             	3.09710829e+02
760             	3.09710775e+02
761             	3.09710741e+02
762             	3.09710720e+02
763             	3.09710685e+02
764             	3.09710657e+02
765             	3.09710681e+02
766             	3.09710733e+02
767             	3.09710810e+02
768             	3.09710900e+02
769             	3.09711003e+02
770             	3.09711120e+02
771             	3.09711249e+02
772             	3.09711382e+02
773             	3.09711517e+02
774             	3.09711628e+02
775             	3.09711742e+02
776             	3.09711848e+02
777             	3.09711950e+02
778             	3.09712029e+02
779             	3.09712082e+02
780             	3.09712123e+02
781             	3.09712142e+02
782             	3.09712132e+02
783             	3.09712102e+02
784             	3.09712044e+02
785             	3.09711950e+02
786             	3.09711850e+02
787             	3.09711774e+02
788             	3.09711716e+02
789             	3.09711670e+02
790             	3.09711641e+02
791             	3.09711648e+02
792             	3.09711675e+02
793             	3.09711716e+02
794             	3.09711771e+02
795             	3.09711835e+02
796             	3.09711910e+02
797             	3.09711992e+02
798             	3.09712083e+02
799             	3.09712145e+02
800             	3.09712215e+02
801             	3.09712274e+02
802             	3.09712327e+02
803             	3.09712373e+02
804             	3.09712407e+02
805             	3.09712429e+02
806             	3.09712436e+02
807             	3.09712427e+02
808             	3.09712404e+02
809             	3.09712377e+02
810             	3.09712352e+02
811             	3.09712338e+02
812             	3.09712323e+02
813             	3.09712332e+02
814             	3.09712347e+02
815             	3.09712359e+02
816             	3.09712378e+02
817             	3.09712398e+02
818             	3.09712425e+02
819             	3.09712459e+02
820             	3.09712491e+02
821             	3.09712512e+02
822             	3.09712528e+02
823             	3.09712558e+02
824             	3.09712586e+02
825             	3.09712608e+02
826             	3.09712619e+02
827             	3.09712621e+02
828             	3.09712614e+02
829             	3.09712617e+02
830             	3.09712606e+02
831             	3.09712583e+02
832             	3.09712557e+02
833             	3.09712531e+02
834             	3.09712511e+02
835             	3.09712501e+02
836             	3.09712504e+02
837             	3.09712525e+02
838             	3.09712558e+02
839             	3.09712611e+02
840             	3.09712665e+02
841             	3.09712728e+02
842             	3.09712790e+02
843             	3.09712885e+02
844             	3.09712946e+02
845             	3.09713030e+02
846             	3.09713100e+02
847             	3.09713168e+02
848             	3.09713221e+02
849             	3.09713257e+02
850             	3.09713279e+02
851             	3.09713287e+02
852             	3.09713265e+02
853             	3.09713222e+02
854             	3.09713156e+02
855             	3.09713057e+02
856             	3.09712972e+02
857             	3.09712907e+02
858             	3.09712852e+02
859             	3.09712811e+02
860             	3.09712786e+02
861             	3.09712780e+02
862             	3.09712772e+02
863             	3.09712770e+02
864             	3.09712775e+02
865             	3.09712787e+02
866             	3.09712806e+02
867             	3.09712834e+02
868             	3.09712866e+02
869             	3.09712903e+02
870             	3.09712943e+02
871             	3.09712978e+02
872             	3.09712963e+02
873             	3.09712975e+02
874             	3.09713008e+02
875             	3.09713047e+02
876             	3.09713092e+02
877             	3.09713145e+02
878             	3.09713203e+02
879             	3.09713268e+02
880             	3.09713334e+02
881             	3.09713396e+02
882             	3.09713450e+02
883             	3.09713494e+02
884             	3.09713525e+02
885             	3.09713548e+02
886             	3.09713561e+02
887             	3.09713565e+02
888             	3.09713550e+02
889             	3.09713514e+02
890             	3.09713464e+02
891             	3.09713406e+02
892             	3.09713338e+02
893             	3.09713263e+02
894             	3.09713179e+02
895             	3.09713093e+02
896             	3.09713011e+02
897             	3.09712945e+02
898             	3.09712892e+02
899             	3.09712849e+02
900             	3.09712813e+02
901             	3.09712783e+02
902             	3.09712763e+02
903             	3.09712756e+02
904             	3.09712759e+02
905             	3.09712778e+02
906             	3.09712807e+02
907             	3.09712839e+02
908             	3.09712893e+02
909             	3.09712932e+02
910             	3.09712985e+02
911             	3.09713028e+02
912             	3.09713069e+02
913             	3.09713093e+02
914             	3.09713106e+02
915             	3.09713107e+02
916             	3.09713094e+02
917             	3.09713069e+02
918             	3.09713034e+02
919             	3.09712991e+02
920             	3.09712943e+02
921             	3.09712900e+02
922             	3.09712883e+02
923             	3.09712863e+02
924             	3.09712840e+02
925             	3.09712822e+02
926             	3.09712810e+02
927             	3.09712806e+02
928             	3.09712824e+02
929             	3.09712848e+02
930             	3.09712883e+02
931             	3.09712924e+02
932             	3.09712965e+02
933             	3.09713015e+02