# Region        : cellZone pcb
# Cells         : 715
# Volume        : 1.43702723e+00
# Time          	volAverage(T)
1               	3.00002194e+02
2               	3.00006447e+02
3               	3.00012523e+02
4               	3.00020304e+02
5               	3.00029322e+02
6               	3.00039738e+02
7               	3.00051509e+02
8               	3.00064544e+02
9               	3.00079061e+02
10              	3.00094879e+02
11              	3.00111562e+02
12              	3.00129601e+02
13              	3.00148747e+02
14              	3.00169101e+02
15              	3.00190357e+02
16              	3.00212427e+02
17              	3.00235358e+02
18              	3.00258727e+02
19              	3.00282844e+02
20              	3.00307574e+02
21              	3.00333299e+02
22              	3.00359185e+02
23              	3.00386044e+02
24              	3.00414332e+02
25              	3.00442421e+02
26              	3.00470318e+02
27              	3.00498308e+02
28              	3.00527044e+02
29              	3.00556766e+02
30              	3.00587461e+02
31              	3.00618885e+02
32              	3.00651459e+02
33              	3.00684793e+02
34              	3.00718121e+02
35              	3.00750914e+02
36              	3.00783469e+02
37              	3.00816296e+02
38              	3.00849049e+02
39              	3.00882654e+02
40              	3.00916635e+02
41              	3.00951279e+02
42              	3.00986354e+02
43              	3.01021543e+02
44              	3.01056782e+02
45              	3.01091878e+02
46              	3.01127515e+02
47              	3.01162227e+02
48              	3.01196635e+02
49              	3.01229995e+02
50              	3.01263703e+02
51              	3.01298159e+02
52              	3.01333262e+02
53              	3.01368533e+02
54              	3.01403852e+02
55              	3.01439359e+02
56              	3.01475125e+02
57              	3.01510414e+02
58              	3.01545120e+02
59              	3.01580490e+02
60              	3.01615141e+02
61              	3.01648239e+02
62              	3.01682088e+02
63              	3.01717054e+02
64              	3.01750910e+02
65              	3.01784152e+02
66              	3.01817938e+02
67              	3.01853571e+02
68              	3.01890442e+02
69              	3.01925389e+02
70              	3.01960375e+02
71              	3.01993759e+02
72              	3.02024617e+02
73              	3.02054589e+02
74              	3.02084954e+02
75              	3.02115260e+02
76              	3.02146387e+02
77              	3.02177551e+02
78              	3.02208754e+02
79              	3.02240289e+02
80              	3.02272533e+02
81              	3.02305075e+02
82              	3.02337500e+02
83              	3.02370394e+02
84              	3.02403598e+02
85              	3.02435359e+02
86              	3.02467719e+02
87              	3.02499358e+02
88              	3.02530180e+02
89              	3.02560018e+02
90              	3.02588813e+02
91              	3.02617703e+02
92              	3.02649030e+02
93              	3.02679064e+02
94              	3.02710364e+02
95              	3.02741802e+02
96              	3.02773134e+02
97              	3.02803365e+02
98              	3.02831677e+02
99              	3.02860503e+02
100             	3.02888764e+02
101             	3.02915870e+02
102             	3.02942546e+02
103             	3.02969087e+02
104             	3.02995683e+02
105             	3.03022147e+02
106             	3.03048327e+02
107             	3.03074860e+02
108             	3.03101714e+02
109             	3.03128069e+02
110             	3.03154135e+02
111             	3.03179404e+02
112             	3.03204140e+02
113             	3.03229115e+02
114             	3.03254771e+02
115             	3.03280539e+02
116             	3.03306072e+02
117             	3.03331682e+02
118             	3.03357257e+02
119             	3.03382222e+02
120             	3.03407278e+02
121             	3.03432482e+02
122             	3.03457492e+02
123             	3.03482412e+02
124             	3.03507130e+02
125             	3.03531425e+02
126             	3.03555043e+02
127             	3.03578310e+02
128             	3.03601302e+02
129             	3.03624532e+02
130             	3.03647204e+02
131             	3.03669867e+02
132             	3.03692965e+02
133             	3.03716302e+02
134             	3.03739867e+02
135             	3.03763347e+02
136             	3.03786802e+02
137             	3.03810219e+02
138             	3.03833675e+02
139             	3.03856585e+02
140             	3.03879109e+02
141             	3.03901711e+02
142             	3.03924251e+02
143             	3.03946657e+02
144             	3.03968886e+02
145             	3.03990940e+02
146             	3.04012698e+02
147             	3.04034146e+02
148             	3.04055426e+02
149             	3.04076356e+02
150             	3.04097130e+02
151             	3.04117761e+02
152             	3.04138231e+02
153             	3.04157660e+02
154             	3.04176540e+02
155             	3.04195166e+02
156             	3.04213584e+02
157             	3.04231767e+02
158             	3.04249858e+02
159             	3.04267899e+02
160             	3.04285934e+02
161             	3.04303953e+02
162             	3.04321941e+02
163             	3.04339850e+02
164             	3.04357458e+02
165             	3.04374585e+02
166             	3.04391561e+02
167             	3.04408454e+02
168             	3.04424941e+02
169             	3.04441374e+02
170             	3.04457897e+02
171             	3.04474266e+02
172             	3.04490604e+02
173             	3.04506813e+02
174             	3.04523074e+02
175             	3.04539229e+02
176             	3.04555320e+02
177             	3.04571405e+02
178             	3.04587313e+02
179             	3.04602810e+02
180             	3.04617560e+02
181             	3.04631919e+02
182             	3.04646215e+02
183             	3.04660392e+02
184             	3.04674442e+02
185             	3.04688635e+02
186             	3.04702913e+02
187             	3.04717256e+02
188             	3.04731529e+02
189             	3.04745511e+02
190             	3.04759025e+02
191             	3.04772326e+02
192             	3.04785522e+02
193             	3.04798695e+02
194             	3.04811848e+02
195             	3.04824982e+02
196             	3.04838298e+02
197             	3.04851841e+02
198             	3.04865639e+02
199             	3.04879573e+02
200             	3.04893463e+02
201             	3.04907185e+02
202             	3.04920652e+02
203             	3.04933907e+02
204             	3.04946720e+02
205             	3.04959291e+02
206             	3.04971652e+02
207             	3.04983903e+02
208             	3.04996133e+02
209             	3.05008470e+02
210             	3.05020838e+02
211             	3.05033271e+02
212             	3.05046066e+02
213             	3.05059076e+02
214             	3.05071976e+02
215             	3.05084468e+02
216             	3.05096333e+02
217             	3.05107600e+02
218             	3.05118625e+02
219             	3.05129384e+02
220             	3.05140099e+02
221             	3.05150532e+02
222             	3.05160755e+02
223             	3.05170945e+02
224             	3.05181152e+02
225             	3.05191352e+02
226             	3.05201548e+02
227             	3.05211769e+02
228             	3.05221616e+02
229             	3.05231023e+02
230             	3.05240258e+02
231             	3.05249404e+02
232             	3.05258418e+02
233             	3.05267352e+02
234             	3.05276322e+02
235             	3.05285469e+02
236             	3.05294693e+02
237             	3.05304032e+02
238             	3.05313459e+02
239             	3.05322780e+02
240             	3.05331689e+02
241             	3.05340249e+02
242             	3.05348641e+02
243             	3.05356971e+02
244             	3.05365270e+02
245             	3.05373589e+02
246             	3.05381926e+02
247             	3.05390198e+02
248             	3.05398502e+02
249             	3.05406792e+02
250             	3.05415117e+02
251             	3.05423448e+02
252             	3.05431744e+02
253             	3.05439999e+02
254             	3.05447947e+02
255             	3.05455543e+02
256             	3.05463029e+02
257             	3.05470393e+02
258             	3.05477734e+02
259             	3.05485100e+02
260             	3.05492586e+02
261             	3.05500120e+02
262             	3.05507831e+02
263             	3.05515707e+02
264             	3.05523602e+02
265             	3.05531435e+02
266             	3.05539000e+02
267             	3.05546136e+02
268             	3.05553151e+02
269             	3.05560185e+02
270             	3.05567178e+02
271             	3.05574099e+02
272             	3.05580967e+02
273             	3.05587919e+02
274             	3.05595054e+02
275             	3.05602135e+02
276             	3.05609109e+02
277             	3.05616012e+02
278             	3.05622844e+02
279             	3.05629505e+02
280             	3.05635861e+02
281             	3.05641775e+02
282             	3.05647539e+02
283             	3.05653257e+02
284             	3.05658924e+02
285             	3.05664588e+02
286             	3.05670334e+02
287             	3.05676099e+02
288             	3.05681885e+02
289             	3.05687702e+02
290             	3.05693502e+02
291             	3.05699233e+02
292             	3.05704749e+02
293             	3.05709887e+02
294             	3.05714820e+02
295             	3.05719777e+02
296             	3.05724713e+02
297             	3.05729615e+02
298             	3.05734512e+02
299             	3.05739460e+02
300             	3.05744531e+02
301             	3.05749660e+02
302             	3.05754961e+02
303             	3.05760209e+02
304             	3.05765326e+02
305             	3.05770381e+02
306             	3.05775169e+02
307             	3.05779699e+02
308             	3.05784109e+02
309             	3.05788405e+02
310             	3.05792694e+02
311             	3.05797036e+02
312             	3.05801465e+02
313             	3.05805921e+02
314             	3.05810472e+02
315             	3.05815026e+02
316             	3.05819525e+02
317             	3.05823952e+02
318             	3.05828152e+02
319             	3.05832006e+02
320             	3.05835675e+02
321             	3.05839295e+02
322             	3.05842884e+02
323             	3.05846474e+02
324             	3.05850091e+02
325             	3.05853888e+02
326             	3.05857940e+02
327             	3.05862192e+02
328             	3.05866502e+02
329             	3.05870812e+02
330             	3.05874980e+02
331             	3.05878815e+02
332             	3.05882430e+02
333             	3.05885983e+02
334             	3.05889625e+02
335             	3.05893233e+02
336             	3.05896886e+02
337             	3.05900598e+02
338             	3.05904393e+02
339             	3.05908356e+02
340             	3.05912351e+02
341             	3.05916352e+02
342             	3.05920302e+02
343             	3.05924128e+02
344             	3.05927812e+02
345             	3.05931332e+02
346             	3.05934600e+02
347             	3.05937705e+02
348             	3.05940878e+02
349             	3.05944108e+02
350             	3.05947188e+02
351             	3.05950199e+02
352             	3.05953357e+02
353             	3.05956547e+02
354             	3.05959685e+02
355             	3.05962685e+02
356             	3.05965533e+02
357             	3.05968300e+02
358             	3.05971074e+02
359             	3.05973988e+02
360             	3.05976789e+02
361             	3.05979432e+02
362             	3.05982063e+02
363             	3.05984715e+02
364             	3.05987383e+02
365             	3.05990096e+02
366             	3.05992773e+02
367             	3.05995407e+02
368             	3.05997925e+02
369             	3.06000353e+02
370             	3.06002712e+02
371             	3.06005029e+02
372             	3.06007335e+02
373             	3.06009685e+02
374             	3.06012071e+02
375             	3.06014478e+02
376             	3.06016873e+02
377             	3.06019236e+02
378             	3.06021555e+02
379             	3.06023818e+02
380             	3.06026032e+02
381             	3.06028083e+02
382             	3.06030051e+02
383             	3.06031991e+02
384             	3.06033942e+02
385             	3.06035927e+02
386             	3.06037930e+02
387             	3.06039916e+02
388             	3.06041911e+02
389             	3.06043914e+02
390             	3.06045942e+02
391             	3.06048024e+02
392             	3.06050093e+02
393             	3.06052146e+02
394             	3.06054231e+02
395             	3.06056335e+02
396             	3.06058409e+02
397             	3.06060486e+02
398             	3.06062582e+02
399             	3.06064639e+02
400             	3.06066645e+02
401             	3.06068665e+02
402             	3.06070673e+02
403             	3.06072704e+02
404             	3.06074737e+02
405             	3.06076759e+02
406             	3.06078781e+02
407             	3.06080803e+02
408             	3.06082780e+02
409             	3.06084722e+02
410             	3.06086648e+02
411             	3.06088528e+02
412             	3.06090375e+02
413             	3.06092165e+02
414             	3.06093917e+02
415             	3.06095635e+02
416             	3.06097312e+02
417             	3.06098948e+02
418             	3.06100555e+02
419             	3.06102126e+02
420             	3.06103646e+02
421             	3.06105145e+02
422             	3.06106610e+02
423             	3.06108030e+02
424             	3.06109436e+02
425             	3.06110834e+02
426             	3.06112225e+02
427             	3.06113595e+02
428             	3.06114951e+02
429             	3.06116264e+02
430             	3.06117543e+02
431             	3.06118805e+02
432             	3.06120058e+02
433             	3.06121309e+02
434             	3.06122575e+02
435             	3.06123835e+02
436             	3.06125079e+02
437             	3.06126319e+02
438             	3.06127560e+02
439             	3.06128802e+02
440             	3.06130031e+02
441             	3.06131251e+02
442             	3.06132464e+02
443             	3.06133674e+02
444             	3.06134891e+02
445             	3.06136116e+02
446             	3.06137339e+02
447             	3.06138567e+02
448             	3.06139788e+02
449             	3.06140987e+02
450             	3.06142167e+02
451             	3.06143337e+02
452             	3.06144495e+02
453             	3.06145650e+02
454             	3.06146807e+02
455             	3.06147968e+02
456             	3.06149134e+02
457             	3.06150303e+02
458             	3.06151473e+02
459             	3.06152641e+02
460             	3.06153801e+02
461             	3.06154952e+02
462             	3.06156089e+02
463             	3.06157211e+02
464             	3.06158317e+02
465             	3.06159404e+02
466             	3.06160474e+02
467             	3.06161517e+02
468             	3.06162538e+02
469             	3.06163539e+02
470             	3.06164528e+02
471             	3.06165520e+02
472             	3.06166494e+02
473             	3.06167448e+02
474             	3.06168386e+02
475             	3.06169321e+02
476             	3.06170248e+02
477             	3.06171162e+02
478             	3.06172056e+02
479             	3.06172933e+02
480             	3.06173797e+02
481             	3.06174656e+02
482             	3.06175509e+02
483             	3.06176352e+02
484             	3.06177185e+02
485             	3.06178006e+02
486             	3.06178814e+02
487             	3.06179608e+02
488             	3.06180392e+02
489             	3.06181168e+02
490             	3.06181934e+02
491             	3.06182691e+02
492             	3.06183435e+02
493             	3.06184174e+02
494             	3.06184916e+02
495             	3.06185662e+02
496             	3.06186398e+02
497             	3.06187121e+02
498             	3.06187836e+02
499             	3.06188541e+02
500             	3.06189237e+02
501             	3.06189924e+02
502             	3.06190600e+02
503             	3.06191267e+02
504             	3.06191925e+02
505             	3.06192575e+02
506             	3.06193217e+02
507             	3.06193849e+02
508             	3.06194469e+02
509             	3.06195079e+02
510             	3.06195682e+02
511             	3.06196277e+02
512             	3.06196864e+02
513             	3.06197444e+02
514             	3.06198033e+02
515             	3.06198621e+02
516             	3.06199204e+02
517             	3.06199788e+02
518             	3.06200377e+02
519             	3.06200975e+02
520             	3.06201578e+02
521             	3.06202182e+02
522             	3.06202792e+02
523             	3.06203406e+02
524             	3.06204017e+02
525             	3.06204623e+02
526             	3.06205230e+02
527             	3.06205832e+02
528             	3.06206437e+02
529             	3.06207043e+02
530             	3.06207647e+02
531             	3.06208231e+02
532             	3.06208823e+02
533             	3.06209422e+02
534             	3.06210014e+02
535             	3.06210598e+02
536             	3.06211171e+02
537             	3.06211729e+02
538             	3.06212271e+02
539             	3.06212798e+02
540             	3.06213320e+02
541             	3.06213828e+02
542             	3.06214322e+02
543             	3.06214815e+02
544             	3.06215299e+02
545             	3.06215770e+02
546             	3.06216229e+02
547             	3.06216674e+02
548             	3.06217109e+02
549             	3.06217527e+02
550             	3.06217925e+02
551             	3.06218336e+02
552             	3.06218755e+02
553             	3.06219167e+02
554             	3.06219570e+02
555             	3.06219964e+02
556             	3.06220348e+02
557             	3.06220728e+02
558             	3.06221105e+02
559             	3.06221479e+02
560             	3.06221861e+02
561             	3.06222231e+02
562             	3.06222592e+02
563             	3.06222953e+02
564             	3.06223307e+02
565             	3.06223655e+02
566             	3.06224002e+02
567             	3.06224347e+02
568             	3.06224694e+02
569             	3.06225045e+02
570             	3.06225396e+02
571             	3.06225736e+02
572             	3.06226055e+02
573             	3.06226385e+02
574             	3.06226729e+02
575             	3.06227073e+02
576             	3.06227412e+02
577             	3.06227757e+02
578             	3.06228120e+02
579             	3.06228471e+02
580             	3.06228808e+02
581             	3.06229134e+02
582             	3.06229454e+02
583             	3.06229775e+02
584             	3.06230092e+02
585             	3.06230414e+02
586             	3.06230741e+02
587             	3.06231072e+02
588             	3.06231399e+02
589             	3.06231725e+02
590             	3.06232035e+02
591             	3.06232330e+02
592             	3.06232652e+02
593             	3.06232992e+02
594             	3.06233339e+02
595             	3.06233708e+02
596             	3.06234104e+02
597             	3.06234471e+02
598             	3.06234789e+02
599             	3.06235079e+02
600             	3.06235339e+02
601             	3.06235578e+02
602             	3.06235835e+02
603             	3.06236098e+02
604             	3.06236347e+02
605             	3.06236613e+02
606             	3.06236912e+02
607             	3.06237226e+02
608             	3.06237538e+02
609             	3.06237831e+02
610             	3.06238140e+02
611             	3.06238464e+02
612             	3.06238739e+02
613             	3.06238958e+02
614             	3.06239154e+02
615             	3.06239344e+02
616             	3.06239535e+02
617             	3.06239727e+02
618             	3.06239923e+02
619             	3.06240071e+02
620             	3.06240264e+02
621             	3.06240507e+02
622             	3.06240759e+02
623             	3.06240995e+02
624             	3.06241221e+02
625             	3.06241448e+02
626             	3.06241671e+02
627             	3.06241886e+02
628             	3.06242100e+02
629             	3.06242326e+02
630             	3.06242545e+02
631             	3.06242722e+02
632             	3.06242875e+02
633             	3.06243029e+02
634             	3.06243187e+02
635             	3.06243353e+02
636             	3.06243519e+02
637             	3.06243660e+02
638             	3.06243784e+02
639             	3.06243902e+02
640             	3.06244067e+02
641             	3.06244268e+02
642             	3.06244501e+02
643             	3.06244755e+02
644             	3.06244991e+02
645             	3.06245183e+02
646             	3.06245341e+02
647             	3.06245494e+02
648             	3.06245664e+02
649             	3.06245816e+02
650             	3.06245954e+02
651             	3.06246104e+02
652             	3.06246289e+02
653             	3.06246496e+02
654             	3.06246705e+02
655             	3.06246912e+02
656             	3.06247085e+02
657             	3.06247251e+02
658             	3.06247425e+02
659             	3.06247608e+02
660             	3.06247811e+02
661             	3.06248018e+02
662             	3.06248234e+02
663             	3.06248448e+02
664             	3.06248645e+02
665             	3.06248829e+02
666             	3.06249005e+02
667             	3.06249150e+02
668             	3.06249306e+02
669             	3.06249487e+02
670             	3.06249632e+02
671             	3.06249768e+02
672             	3.06249908e+02
673             	3.06250029e+02
674             	3.06250121e+02
675             	3.06250223e+02
676             	3.06250336e+02
677             	3.06250443e+02
678             	3.06250540e+02
679             	3.06250621e+02
680             	3.06250731e+02
681             	3.06250875e+02
682             	3.06251033e+02
683             	3.06251180e+02
684             	3.06251317e+02
685             	3.06251445e+02
686             	3.06251574e+02
687             	3.06251720e+02
688             	3.06251840e+02
689             	3.06251935e+02
690             	3.06252028e+02
691             	3.06252131e+02
692             	3.06252245e+02
693             	3.06252372e+02
694             	3.06252515e+02
695             	3.06252671e+02
696             	3.06252821e+02
697             	3.06252928e+02
698             	3.06253008e+02
699             	3.06253118e+02
700             	3.06253247e+02
701             	3.06253376e+02
702             	3.06253496e+02
703             	3.06253616e+02
704             	3.06253772e+02
705             	3.06253962e+02
706             	3.06254099e+02
707             	3.06254196e+02
708             	3.06254288e+02
709             	3.06254363e+02
710             	3.06254379e+02
711             	3.06254362e+02
712             	3.06254381e+02
713             	3.06254439e+02
714             	3.06254521e+02
715             	3.06254619e+02
716             	3.06254727e+02
717             	3.06254847e+02
718             	3.06254997e+02
719             	3.06255153e+02
720             	3.06255272e+02
721             	3.06255344e+02
722             	3.06255396e+02
723             	3.06255448e+02
724             	3.06255497e+02
725             	3.06255543e+02
726             	3.06255601e+02
727             	3.06255668e+02
728             	3.06255722e+02
729             	3.06255770e+02
730             	3.06255850e+02
731             	3.06255953e+02
732             	3.06256054e+02
733             	3.06256151e+02
734             	3.06256251e+02
735             	3.06256418e+02
736             	3.06256599e+02
737             	3.06256744e+02
738             	3.06256862e+02
739             	3.06256959e+02
740             	3.06257049e+02
741             	3.06257136e+02
742             	3.06257222e+02
743             	3.06257294e+02
744             	3.06257372e+02
745             	3.06257455e+02
746             	3.06257538e+02
747             	3.06257595e+02
748             	3.06257681e+02
749             	3.06257798e+02
750             	3.06257930e+02
751             	3.06258051e+02
752             	3.06258159e+02
753             	3.06258252e+02
754             	3.06258331e+02
755             	3.06258408e+02
756             	3.06258487e+02
757             	3.06258555e+02
758             	3.06258610e+02
759             	3.06258652e+02
760             	3.06258694e+02
761             	3.06258745e+02
762             	3.06258803e+02
763             	3.06258867e+02
764             	3.06258937e+02
765             	3.06259005e+02
766             	3.06259067e+02
767             	3.06259113e+02
768             	3.06259140e+02
769             	3.06259149e+02
770             	3.06259147e+02
771             	3.06259170e+02
772             	3.06259212e+02
773             	3.06259261e+02
774             	3.06259325e+02
775             	3.06259417e+02
776             	3.06259531e+02
777             	3.06259649e+02
778             	3.06259720e+02
779             	3.06259752e+02
780             	3.06259756e+02
781             	3.06259713e+02
782             	3.06259670e+02
783             	3.06259669e+02
784             	3.06259721e+02
785             	3.06259808e+02
786             	3.06259915e+02
787             	3.06260105e+02
788             	3.06260286e+02
789             	3.06260388e+02
790             	3.06260446e+02
791             	3.06260483e+02
792             	3.06260502e+02
793             	3.06260512e+02
794             	3.06260525e+02
795             	3.06260549e+02
796             	3.06260593e+02
797             	3.06260654e+02
798             	3.06260714e+02
799             	3.06260744e+02
800             	3.06260797e+02
801             	3.06260875e+02
802             	3.06260953e+02
803             	3.06261013e+02
804             	3.06261059e+02
805             	3.06261138e+02
806             	3.06261249e+02
807             	3.06261346e+02
808             	3.06261436e+02
809             	3.06261526e+02
810             	3.06261607e+02
811             	3.06261670e+02
812             	3.06261718e+02
813             	3.06261746e+02
814             	3.06261759e+02
815             	3.06261763e+02
816             	3.06261792e+02
817             	3.06261849e+02
818             	3.06261923e+02
819             	3.06262010e+02
820             	3.06262094e+02
821             	3.06262173e+02
822             	3.06262243e+02
823             	3.06262294e+02
824             	3.06262326e+02
825             	3.06262343e+02
826             	3.06262356e+02
827             	3.06262377e+02
828             	3.06262415e+02
829             	3.06262456e+02
830             	3.06262495e+02
831             	3.06262525e+02
832             	3.06262544e+02
833             	3.06262568e+02
834             	3.06262595e+02
835             	3.06262629e+02
836             	3.06262668e+02
837             	3.06262709e+02
838             	3.06262741e+02
839             	3.06262771e+02
840             	3.06262781e+02
841             	3.06262793e+02
842             	3.06262811e+02
843             	3.06262833e+02
844             	3.06262858e+02
845             	3.06262885e+02
846             	3.06262913e+02
847             	3.06262943e+02
848             	3.06262989e+02
849             	3.06263041e+02
850             	3.06263103e+02
851             	3.06263180e+02
852             	3.06263236e+02
853             	3.06263265e+02
854             	3.06263283e+02
855             	3.06263300e+02
856             	3.06263325e+02
857             	3.06263355e+02
858             	3.06263378e+02
859             	3.06263415e+02
860             	3.06263485e+02
861             	3.06263566e+02
862             	3.06263651e+02
863             	3.06263733e+02
864             	3.06263801e+02
865             	3.06263854e+02
866             	3.06263899e+02
867             	3.06263937e+02
868             	3.06263974e+02
869             	3.06264022e+02
870             	3.06264067e+02
871             	3.06264108e+02
872             	3.06264157e+02
873             	3.06264202e+02
874             	3.06264240e+02
875             	3.06264271e+02
876             	3.06264291e+02
877             	3.06264290e+02
878             	3.06264276e+02
879             	3.06264286e+02
880             	3.06264315e+02
881             	3.06264356e+02
882             	3.06264402e+02
883             	3.06264446e+02
884             	3.06264519e+02
885             	3.06264590e+02
886             	3.06264625e+02
887             	3.06264643e+02
888             	3.06264654e+02
889             	3.06264655e+02
890             	3.06264653e+02
891             	3.06264654e+02
892             	3.06264654e+02
893             	3.06264651e+02
894             	3.06264650e+02
895             	3.06264650e+02
896             	3.06264655e+02
897             	3.06264661e+02
898             	3.06264665e+02
899             	3.06264681e+02
900             	3.06264705e+02
901             	3.06264731e+02
902             	3.06264753e+02
903             	3.06264768e+02
904             	3.06264777e+02
905             	3.06264786e+02
906             	3.06264795e+02
907             	3.06264805e+02
908             	3.06264824e+02
909             	3.06264839e+02
910             	3.06264864e+02
911             	3.06264895e+02
912             	3.06264922e+02
913             	3.06264950e+02
914             	3.06264980e+02
915             	3.06265016e+02
916             	3.06265057e+02
917             	3.06265098e+02
918             	3.06265128e+02
919             	3.06265158e+02
920             	3.06265188e+02
921             	3.06265214e+02
922             	3.06265239e+02
923             	3.06265258e+02
924             	3.06265284e+02
925             	3.06265320e+02
926             	3.06265359e+02
927             	3.06265398e+02
928             	3.06265440e+02
929             	3.06265480e+02
930             	3.06265516e+02
931             	3.06265546e+02
932             	3.06265570e+02
933             	3.06265590e+02