# Region        : cellZone component_3
# Cells         : 132
# Volume        : 2.37334109e-01
# Time          	volAverage(T)
1               	3.00332002e+02
2               	3.00660408e+02
3               	3.00971435e+02
4               	3.01270961e+02
5               	3.01561728e+02
6               	3.01846881e+02
7               	3.02123784e+02
8               	3.02399127e+02
9               	3.02671422e+02
10              	3.02941871e+02
11              	3.03209121e+02
12              	3.03473699e+02
13              	3.03731404e+02
14              	3.03988280e+02
15              	3.04241116e+02
16              	3.04489881e+02
17              	3.04735946e+02
18              	3.04978562e+02
19              	3.05214537e+02
20              	3.05446136e+02
21              	3.05671001e+02
22              	3.05886144e+02
23              	3.06093785e+02
24              	3.06293573e+02
25              	3.06487862e+02
26              	3.06678980e+02
27              	3.06867585e+02
28              	3.07050989e+02
29              	3.07231431e+02
30              	3.07411326e+02
31              	3.07587818e+02
32              	3.07763738e+02
33              	3.07938060e+02
34              	3.08110766e+02
35              	3.08286562e+02
36              	3.08461862e+02
37              	3.08641954e+02
38              	3.08815320e+02
39              	3.08993520e+02
40              	3.09168361e+02
41              	3.09339869e+02
42              	3.09510916e+02
43              	3.09681987e+02
44              	3.09853673e+02
45              	3.10021095e+02
46              	3.10184247e+02
47              	3.10346573e+02
48              	3.10505000e+02
49              	3.10652853e+02
50              	3.10792601e+02
51              	3.10926547e+02
52              	3.11052650e+02
53              	3.11175521e+02
54              	3.11294970e+02
55              	3.11411569e+02
56              	3.11526869e+02
57              	3.11642612e+02
58              	3.11753513e+02
59              	3.11863702e+02
60              	3.11968629e+02
61              	3.12063842e+02
62              	3.12151620e+02
63              	3.12233195e+02
64              	3.12312884e+02
65              	3.12390607e+02
66              	3.12466691e+02
67              	3.12543823e+02
68              	3.12620232e+02
69              	3.12697335e+02
70              	3.12777955e+02
71              	3.12860515e+02
72              	3.12944362e+02
73              	3.13027540e+02
74              	3.13110299e+02
75              	3.13193106e+02
76              	3.13273960e+02
77              	3.13354135e+02
78              	3.13431700e+02
79              	3.13507228e+02
80              	3.13581752e+02
81              	3.13655074e+02
82              	3.13727206e+02
83              	3.13800790e+02
84              	3.13875000e+02
85              	3.13947881e+02
86              	3.14021872e+02
87              	3.14096021e+02
88              	3.14169015e+02
89              	3.14237505e+02
90              	3.14302392e+02
91              	3.14359098e+02
92              	3.14413820e+02
93              	3.14462732e+02
94              	3.14511839e+02
95              	3.14560444e+02
96              	3.14608476e+02
97              	3.14655325e+02
98              	3.14701384e+02
99              	3.14746460e+02
100             	3.14791956e+02
101             	3.14837094e+02
102             	3.14881314e+02
103             	3.14925437e+02
104             	3.14970178e+02
105             	3.15014167e+02
106             	3.15057527e+02
107             	3.15102980e+02
108             	3.15150463e+02
109             	3.15199644e+02
110             	3.15251876e+02
111             	3.15306657e+02
112             	3.15364040e+02
113             	3.15421454e+02
114             	3.15478881e+02
115             	3.15533937e+02
116             	3.15587349e+02
117             	3.15638345e+02
118             	3.15680222e+02
119             	3.15719373e+02
120             	3.15756195e+02
121             	3.15790568e+02
122             	3.15820395e+02
123             	3.15847694e+02
124             	3.15874173e+02
125             	3.15899858e+02
126             	3.15925023e+02
127             	3.15950001e+02
128             	3.15973784e+02
129             	3.15994233e+02
130             	3.16012796e+02
131             	3.16031547e+02
132             	3.16050461e+02
133             	3.16069540e+02
134             	3.16089660e+02
135             	3.16111808e+02
136             	3.16134672e+02
137             	3.16159204e+02
138             	3.16185424e+02
139             	3.16213403e+02
140             	3.16241160e+02
141             	3.16269042e+02
142             	3.16296093e+02
143             	3.16323168e+02
144             	3.16347102e+02
145             	3.16373149e+02
146             	3.16399084e+02
147             	3.16425531e+02
148             	3.16452209e+02
149             	3.16478050e+02
150             	3.16502157e+02
151             	3.16526135e+02
152             	3.16548201e+02
153             	3.16568297e+02
154             	3.16587365e+02
155             	3.16606262e+02
156             	3.16621006e+02
157             	3.16635108e+02
158             	3.16649133e+02
159             	3.16662377e+02
160             	3.16676153e+02
161             	3.16689526e+02
162             	3.16702897e+02
163             	3.16718133e+02
164             	3.16733108e+02
165             	3.16748455e+02
166             	3.16764591e+02
167             	3.16780555e+02
168             	3.16795784e+02
169             	3.16809417e+02
170             	3.16823447e+02
171             	3.16837386e+02
172             	3.16850916e+02
173             	3.16864444e+02
174             	3.16878121e+02
175             	3.16892206e+02
176             	3.16906274e+02
177             	3.16919841e+02
178             	3.16932583e+02
179             	3.16944721e+02
180             	3.16957843e+02
181             	3.16971134e+02
182             	3.16984723e+02
183             	3.16998650e+02
184             	3.17012918e+02
185             	3.17027366e+02
186             	3.17042090e+02
187             	3.17054927e+02
188             	3.17068440e+02
189             	3.17082558e+02
190             	3.17096987e+02
191             	3.17110609e+02
192             	3.17124116e+02
193             	3.17136488e+02
194             	3.17148566e+02
195             	3.17160626e+02
196             	3.17172299e+02
197             	3.17184125e+02
198             	3.17194802e+02
199             	3.17204531e+02
200             	3.17212951e+02
201             	3.17222138e+02
202             	3.17231171e+02
203             	3.17240459e+02
204             	3.17249959e+02
205             	3.17259627e+02
206             	3.17267996e+02
207             	3.17275030e+02
208             	3.17282124e+02
209             	3.17288723e+02
210             	3.17295038e+02
211             	3.17301808e+02
212             	3.17309337e+02
213             	3.17318118e+02
214             	3.17327875e+02
215             	3.17336178e+02
216             	3.17345097e+02
217             	3.17355540e+02
218             	3.17367226e+02
219             	3.17379481e+02
220             	3.17390351e+02
221             	3.17400323e+02
222             	3.17410000e+02
223             	3.17419507e+02
224             	3.17428363e+02
225             	3.17436330e+02
226             	3.17443659e+02
227             	3.17449480e+02
228             	3.17455839e+02
229             	3.17461617e+02
230             	3.17467678e+02
231             	3.17473718e+02
232             	3.17479424e+02
233             	3.17484831e+02
234             	3.17490011e+02
235             	3.17495255e+02
236             	3.17501222e+02
237             	3.17507456e+02
238             	3.17512709e+02
239             	3.17517708e+02
240             	3.17522771e+02
241             	3.17528270e+02
242             	3.17533909e+02
243             	3.17539543e+02
244             	3.17545504e+02
245             	3.17552679e+02
246             	3.17558887e+02
247             	3.17565672e+02
248             	3.17573278e+02
249             	3.17580983e+02
250             	3.17588718e+02
251             	3.17596460e+02
252             	3.17602524e+02
253             	3.17609319e+02
254             	3.17615988e+02
255             	3.17622298e+02
256             	3.17628369e+02
257             	3.17633797e+02
258             	3.17639996e+02
259             	3.17646481e+02
260             	3.17652482e+02
261             	3.17657852e+02
262             	3.17662688e+02
263             	3.17667543e+02
264             	3.17672364e+02
265             	3.17676619e+02
266             	3.17680583e+02
267             	3.17684554e+02
268             	3.17687398e+02
269             	3.17691324e+02
270             	3.17695912e+02
271             	3.17699036e+02
272             	3.17699924e+02
273             	3.17701669e+02
274             	3.17704452e+02
275             	3.17707325e+02
276             	3.17709854e+02
277             	3.17712115e+02
278             	3.17714211e+02
279             	3.17716288e+02
280             	3.17718545e+02
281             	3.17721097e+02
282             	3.17723098e+02
283             	3.17724555e+02
284             	3.17726359e+02
285             	3.17728656e+02
286             	3.17731675e+02
287             	3.17734656e+02
288             	3.17738025e+02
289             	3.17741167e+02
290             	3.17744283e+02
291             	3.17747318e+02
292             	3.17750176e+02
293             	3.17752824e+02
294             	3.17755208e+02
295             	3.17757460e+02
296             	3.17759906e+02
297             	3.17762022e+02
298             	3.17764068e+02
299             	3.17765841e+02
300             	3.17767481e+02
301             	3.17769096e+02
302             	3.17770643e+02
303             	3.17772116e+02
304             	3.17774064e+02
305             	3.17776265e+02
306             	3.17778301e+02
307             	3.17780304e+02
308             	3.17781682e+02
309             	3.17783279e+02
310             	3.17785185e+02
311             	3.17787169e+02
312             	3.17789032e+02
313             	3.17791422e+02
314             	3.17794464e+02
315             	3.17796929e+02
316             	3.17799903e+02
317             	3.17802987e+02
318             	3.17806197e+02
319             	3.17808800e+02
320             	3.17812031e+02
321             	3.17814733e+02
322             	3.17817724e+02
323             	3.17820314e+02
324             	3.17822809e+02
325             	3.17824989e+02
326             	3.17826784e+02
327             	3.17828596e+02
328             	3.17830261e+02
329             	3.17831412e+02
330             	3.17832184e+02
331             	3.17832525e+02
332             	3.17833123e+02
333             	3.17833876e+02
334             	3.17834738e+02
335             	3.17834846e+02
336             	3.17835060e+02
337             	3.17834881e+02
338             	3.17834791e+02
339             	3.17834787e+02
340             	3.17835149e+02
341             	3.17835650e+02
342             	3.17835242e+02
343             	3.17834846e+02
344             	3.17834709e+02
345             	3.17835102e+02
346             	3.17835870e+02
347             	3.17836920e+02
348             	3.17837644e+02
349             	3.17837667e+02
350             	3.17838180e+02
351             	3.17838681e+02
352             	3.17838957e+02
353             	3.17839200e+02
354             	3.17840097e+02
355             	3.17841166e+02
356             	3.17841730e+02
357             	3.17842531e+02
358             	3.17843756e+02
359             	3.17844941e+02
360             	3.17846032e+02
361             	3.17847590e+02
362             	3.17849242e+02
363             	3.17850615e+02
364             	3.17851794e+02
365             	3.17852833e+02
366             	3.17854014e+02
367             	3.17855287e+02
368             	3.17856574e+02
369             	3.17856989e+02
370             	3.17857704e+02
371             	3.17857237e+02
372             	3.17857600e+02
373             	3.17858155e+02
374             	3.17858641e+02
375             	3.17858991e+02
376             	3.17859056e+02
377             	3.17858975e+02
378             	3.17858655e+02
379             	3.17859806e+02
380             	3.17859718e+02
381             	3.17859471e+02
382             	3.17859676e+02
383             	3.17860306e+02
384             	3.17861423e+02
385             	3.17862828e+02
386             	3.17862753e+02
387             	3.17862510e+02
388             	3.17862713e+02
389             	3.17862986e+02
390             	3.17863192e+02
391             	3.17863031e+02
392             	3.17862408e+02
393             	3.17862080e+02
394             	3.17862180e+02
395             	3.17862687e+02
396             	3.17862456e+02
397             	3.17862220e+02
398             	3.17862425e+02
399             	3.17863032e+02
400             	3.17863938e+02
401             	3.17865165e+02
402             	3.17866581e+02
403             	3.17867970e+02
404             	3.17868902e+02
405             	3.17869688e+02
406             	3.17870337e+02
407             	3.17870670e+02
408             	3.17871165e+02
409             	3.17871712e+02
410             	3.17871583e+02
411             	3.17871500e+02
412             	3.17871699e+02
413             	3.17872011e+02
414             	3.17872530e+02
415             	3.17872941e+02
416             	3.17873465e+02
417             	3.17873908e+02
418             	3.17874419e+02
419             	3.17874938e+02
420             	3.17875408e+02
421             	3.17875788e+02
422             	3.17876189e+02
423             	3.17876668e+02
424             	3.17876717e+02
425             	3.17877089e+02
426             	3.17876837e+02
427             	3.17876768e+02
428             	3.17876509e+02
429             	3.17876113e+02
430             	3.17875957e+02
431             	3.17876182e+02
432             	3.17876015e+02
433             	3.17876141e+02
434             	3.17876375e+02
435             	3.17876733e+02
436             	3.17876333e+02
437             	3.17875566e+02
438             	3.17875446e+02
439             	3.17875499e+02
440             	3.17875498e+02
441             	3.17875524e+02
442             	3.17875578e+02
443             	3.17875805e+02
444             	3.17876158e+02
445             	3.17876480e+02
446             	3.17876749e+02
447             	3.17876871e+02
448             	3.17877021e+02
449             	3.17876910e+02
450             	3.17876999e+02
451             	3.17876869e+02
452             	3.17876638e+02
453             	3.17876280e+02
454             	3.17875837e+02
455             	3.17875749e+02
456             	3.17875661e+02
457             	3.17875648e+02
458             	3.17875313e+02
459             	3.17875012e+02
460             	3.17874596e+02
461             	3.17873566e+02
462             	3.17872654e+02
463             	3.17871866e+02
464             	3.17871229e+02
465             	3.17870695e+02
466             	3.17870285e+02
467             	3.17870027e+02
468             	3.17869928e+02
469             	3.17869661e+02
470             	3.17869604e+02
471             	3.17869766e+02
472             	3.17870041e+02
473             	3.17870278e+02
474             	3.17870557e+02
475             	3.17870479e+02
476             	3.17870288e+02
477             	3.17870410e+02
478             	3.17870410e+02
479             	3.17870311e+02
480             	3.17870319e+02
481             	3.17870933e+02
482             	3.17871607e+02
483             	3.17871928e+02
484             	3.17872278e+02
485             	3.17872751e+02
486             	3.17873055e+02
487             	3.17873198e+02
488             	3.17872852e+02
489             	3.17872749e+02
490             	3.17872695e+02
491             	3.17872659e+02
492             	3.17872631e+02
493             	3.17872476e+02
494             	3.17872159e+02
495             	3.17871713e+02
496             	3.17871136e+02
497             	3.17870466e+02
498             	3.17869555e+02
499             	3.17868576e+02
500             	3.17867663e+02
501             	3.17866774e+02
502             	3.17866257e+02
503             	3.17866289e+02
504             	3.17865691e+02
505             	3.17865539e+02
506             	3.17865723e+02
507             	3.17865916e+02
508             	3.17865682e+02
509             	3.17865690e+02
510             	3.17865256e+02
511             	3.17865012e+02
512             	3.17864683e+02
513             	3.17864209e+02
514             	3.17863941e+02
515             	3.17863530e+02
516             	3.17863501e+02
517             	3.17863934e+02
518             	3.17863941e+02
519             	3.17863961e+02
520             	3.17864082e+02
521             	3.17864185e+02
522             	3.17864036e+02
523             	3.17863971e+02
524             	3.17863342e+02
525             	3.17863038e+02
526             	3.17862386e+02
527             	3.17861804e+02
528             	3.17861166e+02
529             	3.17860480e+02
530             	3.17860547e+02
531             	3.17860536e+02
532             	3.17860460e+02
533             	3.17860874e+02
534             	3.17860763e+02
535             	3.17860609e+02
536             	3.17860376e+02
537             	3.17860351e+02
538             	3.17860586e+02
539             	3.17861005e+02
540             	3.17861581e+02
541             	3.17862652e+02
542             	3.17863842e+02
543             	3.17864451e+02
544             	3.17864731e+02
545             	3.17864846e+02
546             	3.17864805e+02
547             	3.17864705e+02
548             	3.17864525e+02
549             	3.17864063e+02
550             	3.17863646e+02
551             	3.17863340e+02
552             	3.17863198e+02
553             	3.17863098e+02
554             	3.17863090e+02
555             	3.17863127e+02
556             	3.17863171e+02
557             	3.17863225e+02
558             	3.17862940e+02
559             	3.17862677e+02
560             	3.17862404e+02
561             	3.17862244e+02
562             	3.17862352e+02
563             	3.17862328e+02
564             	3.17862311e+02
565             	3.17862424e+02
566             	3.17862446e+02
567             	3.17862675e+02
568             	3.17862727e+02
569             	3.17862916e+02
570             	3.17863009e+02
571             	3.17863039e+02
572             	3.17862960e+02
573             	3.17862680e+02
574             	3.17862305e+02
575             	3.17861992e+02
576             	3.17861435e+02
577             	3.17860774e+02
578             	3.17860222e+02
579             	3.17859559e+02
580             	3.17858999e+02
581             	3.17858531e+02
582             	3.17858115e+02
583             	3.17857860e+02
584             	3.17857541e+02
585             	3.17857361e+02
586             	3.17857403e+02
587             	3.17857389e+02
588             	3.17857388e+02
589             	3.17857375e+02
590             	3.17857454e+02
591             	3.17857530e+02
592             	3.17857720e+02
593             	3.17858006e+02
594             	3.17858177e+02
595             	3.17858478e+02
596             	3.17858848e+02
597             	3.17859235e+02
598             	3.17859386e+02
599             	3.17859628e+02
600             	3.17859707e+02
601             	3.17859774e+02
602             	3.17859789e+02
603             	3.17859894e+02
604             	3.17859754e+02
605             	3.17859480e+02
606             	3.17859315e+02
607             	3.17859051e+02
608             	3.17858762e+02
609             	3.17858273e+02
610             	3.17857910e+02
611             	3.17857466e+02
612             	3.17856967e+02
613             	3.17856412e+02
614             	3.17855983e+02
615             	3.17855709e+02
616             	3.17855369e+02
617             	3.17854924e+02
618             	3.17854797e+02
619             	3.17854911e+02
620             	3.17854884e+02
621             	3.17854997e+02
622             	3.17855282e+02
623             	3.17855704e+02
624             	3.17855799e+02
625             	3.17855807e+02
626             	3.17856024e+02
627             	3.17856206e+02
628             	3.17856557e+02
629             	3.17857334e+02
630             	3.17857746e+02
631             	3.17857998e+02
632             	3.17858281e+02
633             	3.17858601e+02
634             	3.17858707e+02
635             	3.17858735e+02
636             	3.17858895e+02
637             	3.17859073e+02
638             	3.17859215e+02
639             	3.17859409e+02
640             	3.17859704e+02
641             	3.17859929e+02
642             	3.17860260e+02
643             	3.17860460e+02
644             	3.17860532e+02
645             	3.17860566e+02
646             	3.17860538e+02
647             	3.17860603e+02
648             	3.17860676e+02
649             	3.17860740e+02
650             	3.17860783e+02
651             	3.17860844e+02
652             	3.17860866e+02
653             	3.17860855e+02
654             	3.17860820e+02
655             	3.17860694e+02
656             	3.17860828e+02
657             	3.17860797e+02
658             	3.17860854e+02
659             	3.17860867e+02
660             	3.17860874e+02
661             	3.17860924e+02
662             	3.17860959e+02
663             	3.17860925e+02
664             	3.17860747e+02
665             	3.17860794e+02
666             	3.17860717e+02
667             	3.17860648e+02
668             	3.17860584e+02
669             	3.17860415e+02
670             	3.17860462e+02
671             	3.17860977e+02
672             	3.17861153e+02
673             	3.17861234e+02
674             	3.17861083e+02
675             	3.17861005e+02
676             	3.17861012e+02
677             	3.17861150e+02
678             	3.17861385e+02
679             	3.17861615e+02
680             	3.17861993e+02
681             	3.17862359e+02
682             	3.17862683e+02
683             	3.17862865e+02
684             	3.17863056e+02
685             	3.17863128e+02
686             	3.17863148e+02
687             	3.17863122e+02
688             	3.17862984e+02
689             	3.17862895e+02
690             	3.17862855e+02
691             	3.17862870e+02
692             	3.17862982e+02
693             	3.17863131e+02
694             	3.17863288e+02
695             	3.17863399e+02
696             	3.17863364e+02
697             	3.17863293e+02
698             	3.17863164e+02
699             	3.17862958e+02
700             	3.17862685e+02
701             	3.17862365e+02
702             	3.17862048e+02
703             	3.17861697e+02
704             	3.17861435e+02
705             	3.17861163e+02
706             	3.17860928e+02
707             	3.17860918e+02
708             	3.17860871e+02
709             	3.17860791e+02
710             	3.17860683e+02
711             	3.17860203e+02
712             	3.17859837e+02
713             	3.17859580e+02
714             	3.17859352e+02
715             	3.17859129e+02
716             	3.17859154e+02
717             	3.17859111e+02
718             	3.17859157e+02
719             	3.17859191e+02
720             	3.17859286e+02
721             	3.17859329e+02
722             	3.17859392e+02
723             	3.17859565e+02
724             	3.17859794e+02
725             	3.17860082e+02
726             	3.17860425e+02
727             	3.17860812e+02
728             	3.17861255e+02
729             	3.17861676e+02
730             	3.17861880e+02
731             	3.17862095e+02
732             	3.17862274e+02
733             	3.17862369e+02
734             	3.17862447e+02
735             	3.17862442e+02
736             	3.17862479e+02
737             	3.17862482e+02
738             	3.17862475e+02
739             	3.17862483e+02
740             	3.17862382e+02
741             	3.17862355e+02
742             	3.17862360e+02
743             	3.17862344e+02
744             	3.17862157e+02
745             	3.17862020e+02
746             	3.17861808e+02
747             	3.17861612e+02
748             	3.17861437e+02
749             	3.17861240e+02
750             	3.17861244e+02
751             	3.17861382e+02
752             	3.17861343e+02
753             	3.17861269e+02
754             	3.17861123e+02
755             	3.17861044e+02
756             	3.17861015e+02
757             	3.17861113e+02
758             	3.17861259e+02
759             	3.17861432e+02
760             	3.17861352e+02
761             	3.17861347e+02
762             	3.17861143e+02
763             	3.17860941e+02
764             	3.17860607e+02
765             	3.17860227e+02
766             	3.17859814e+02
767             	3.17859475e+02
768             	3.17859095e+02
769             	3.17858683e+02
770             	3.17858370e+02
771             	3.17858396e+02
772             	3.17858383e+02
773             	3.17858209e+02
774             	3.17858239e+02
775             	3.17858391e+02
776             	3.17858430e+02
777             	3.17858696e+02
778             	3.17858715e+02
779             	3.17858719e+02
780             	3.17858914e+02
781             	3.17859169e+02
782             	3.17859257e+02
783             	3.17859250e+02
784             	3.17859265e+02
785             	3.17859302e+02
786             	3.17859209e+02
787             	3.17859258e+02
788             	3.17858972e+02
789             	3.17858897e+02
790             	3.17858902e+02
791             	3.17858895e+02
792             	3.17858875e+02
793             	3.17858806e+02
794             	3.17858805e+02
795             	3.17858736e+02
796             	3.17858744e+02
797             	3.17858702e+02
798             	3.17858690e+02
799             	3.17858674e+02
800             	3.17858659e+02
801             	3.17858667e+02
802             	3.17858680e+02
803             	3.17858703e+02
804             	3.17858706e+02
805             	3.17858966e+02
806             	3.17859139e+02
807             	3.17859266e+02
808             	3.17859231e+02
809             	3.17859253e+02
810             	3.17859148e+02
811             	3.17859036e+02
812             	3.17859038e+02
813             	3.17858926e+02
814             	3.17858770e+02
815             	3.17858614e+02
816             	3.17858654e+02
817             	3.17858680e+02
818             	3.17858290e+02
819             	3.17858144e+02
820             	3.17858112e+02
821             	3.17858091e+02
822             	3.17858071e+02
823             	3.17858040e+02
824             	3.17858033e+02
825             	3.17858025e+02
826             	3.17858081e+02
827             	3.17858117e+02
828             	3.17858211e+02
829             	3.17858357e+02
830             	3.17858425e+02
831             	3.17858496e+02
832             	3.17858778e+02
833             	3.17858971e+02
834             	3.17859159e+02
835             	3.17859700e+02
836             	3.17860105e+02
837             	3.17859779e+02
838             	3.17859737e+02
839             	3.17859705e+02
840             	3.17859855e+02
841             	3.17859867e+02
842             	3.17860143e+02
843             	3.17860731e+02
844             	3.17860496e+02
845             	3.17860479e+02
846             	3.17860327e+02
847             	3.17860154e+02
848             	3.17859825e+02
849             	3.17859575e+02
850             	3.17859699e+02
851             	3.17860300e+02
852             	3.17860465e+02
853             	3.17860622e+02
854             	3.17860929e+02
855             	3.17861351e+02
856             	3.17861787e+02
857             	3.17862223e+02
858             	3.17862608e+02
859             	3.17862993e+02
860             	3.17863111e+02
861             	3.17863172e+02
862             	3.17863302e+02
863             	3.17863419e+02
864             	3.17863389e+02
865             	3.17863515e+02
866             	3.17863552e+02
867             	3.17863513e+02
868             	3.17863440e+02
869             	3.17863331e+02
870             	3.17863168e+02
871             	3.17862985e+02
872             	3.17862720e+02
873             	3.17862431e+02
874             	3.17862020e+02
875             	3.17861790e+02
876             	3.17861497e+02
877             	3.17861219e+02
878             	3.17861042e+02
879             	3.17860943e+02
880             	3.17860975e+02
881             	3.17860936e+02
882             	3.17860843e+02
883             	3.17860742e+02
884             	3.17860572e+02
885             	3.17860537e+02
886             	3.17860245e+02
887             	3.17860007e+02
888             	3.17859849e+02
889             	3.17859715e+02
890             	3.17859746e+02
891             	3.17859796e+02
892             	3.17859873e+02
893             	3.17860027e+02
894             	3.17860064e+02
895             	3.17860208e+02
896             	3.17860125e+02
897             	3.17860117e+02
898             	3.17860138e+02
899             	3.17860106e+02
900             	3.17860125e+02
901             	3.17860105e+02
902             	3.17860081e+02
903             	3.17860074e+02
904             	3.17860069e+02
905             	3.17860067e+02
906             	3.17860043e+02
907             	3.17859986e+02
908             	3.17859882e+02
909             	3.17859949e+02
910             	3.17859906e+02
911             	3.17859823e+02
912             	3.17859720e+02
913             	3.17859619e+02
914             	3.17859511e+02
915             	3.17859396e+02
916             	3.17859276e+02
917             	3.17859182e+02
918             	3.17858869e+02
919             	3.17858652e+02
920             	3.17858478e+02
921             	3.17858588e+02
922             	3.17858611e+02
923             	3.17858678e+02
924             	3.17858889e+02
925             	3.17859163e+02
926             	3.17859568e+02
927             	3.17860014e+02
928             	3.17860514e+02
929             	3.17861001e+02
930             	3.17861122e+02
931             	3.17861423e+02
932             	3.17861785e+02
933             	3.17862145e+02