# Region        : cellZone pcb
# Cells         : 502
# Volume        : 1.00629897e+00
# Time          	volAverage(T)
1               	3.00010109e+02
2               	3.00029560e+02
3               	3.00056901e+02
4               	3.00091633e+02
5               	3.00130535e+02
6               	3.00176606e+02
7               	3.00227724e+02
8               	3.00284297e+02
9               	3.00344995e+02
10              	3.00413666e+02
11              	3.00490707e+02
12              	3.00566927e+02
13              	3.00644866e+02
14              	3.00729531e+02
15              	3.00818735e+02
16              	3.00912258e+02
17              	3.01008273e+02
18              	3.01105751e+02
19              	3.01205471e+02
20              	3.01308197e+02
21              	3.01414307e+02
22              	3.01515762e+02
23              	3.01620631e+02
24              	3.01725084e+02
25              	3.01833355e+02
26              	3.01940461e+02
27              	3.02047475e+02
28              	3.02156381e+02
29              	3.02270300e+02
30              	3.02391156e+02
31              	3.02513923e+02
32              	3.02637717e+02
33              	3.02754432e+02
34              	3.02872396e+02
35              	3.02988173e+02
36              	3.03099831e+02
37              	3.03217767e+02
38              	3.03334072e+02
39              	3.03451240e+02
40              	3.03572728e+02
41              	3.03692957e+02
42              	3.03809948e+02
43              	3.03923587e+02
44              	3.04036448e+02
45              	3.04153142e+02
46              	3.04268628e+02
47              	3.04384921e+02
48              	3.04497151e+02
49              	3.04613973e+02
50              	3.04729235e+02
51              	3.04841022e+02
52              	3.04947593e+02
53              	3.05056362e+02
54              	3.05168729e+02
55              	3.05276937e+02
56              	3.05385017e+02
57              	3.05492114e+02
58              	3.05595390e+02
59              	3.05696363e+02
60              	3.05795627e+02
61              	3.05893503e+02
62              	3.05989229e+02
63              	3.06080268e+02
64              	3.06165893e+02
65              	3.06251331e+02
66              	3.06342232e+02
67              	3.06433887e+02
68              	3.06529389e+02
69              	3.06624695e+02
70              	3.06718934e+02
71              	3.06811011e+02
72              	3.06899054e+02
73              	3.06986100e+02
74              	3.07072504e+02
75              	3.07157910e+02
76              	3.07242108e+02
77              	3.07320942e+02
78              	3.07396755e+02
79              	3.07478546e+02
80              	3.07558927e+02
81              	3.07637224e+02
82              	3.07716155e+02
83              	3.07797468e+02
84              	3.07874628e+02
85              	3.07951258e+02
86              	3.08028614e+02
87              	3.08102160e+02
88              	3.08175010e+02
89              	3.08248263e+02
90              	3.08322396e+02
91              	3.08396589e+02
92              	3.08469619e+02
93              	3.08539897e+02
94              	3.08604541e+02
95              	3.08664701e+02
96              	3.08722714e+02
97              	3.08779082e+02
98              	3.08839630e+02
99              	3.08896113e+02
100             	3.08953131e+02
101             	3.09009876e+02
102             	3.09068322e+02
103             	3.09125693e+02
104             	3.09181645e+02
105             	3.09237375e+02
106             	3.09291278e+02
107             	3.09348049e+02
108             	3.09405270e+02
109             	3.09462773e+02
110             	3.09520774e+02
111             	3.09577328e+02
112             	3.09630347e+02
113             	3.09680723e+02
114             	3.09730435e+02
115             	3.09776559e+02
116             	3.09820963e+02
117             	3.09864289e+02
118             	3.09908962e+02
119             	3.09954584e+02
120             	3.09997630e+02
121             	3.10041955e+02
122             	3.10087315e+02
123             	3.10133634e+02
124             	3.10180900e+02
125             	3.10225891e+02
126             	3.10268511e+02
127             	3.10310981e+02
128             	3.10352435e+02
129             	3.10391966e+02
130             	3.10430522e+02
131             	3.10468842e+02
132             	3.10508644e+02
133             	3.10547036e+02
134             	3.10586154e+02
135             	3.10624645e+02
136             	3.10658972e+02
137             	3.10693152e+02
138             	3.10726231e+02
139             	3.10758486e+02
140             	3.10789650e+02
141             	3.10820806e+02
142             	3.10851285e+02
143             	3.10882354e+02
144             	3.10913853e+02
145             	3.10944720e+02
146             	3.10976331e+02
147             	3.11008798e+02
148             	3.11041507e+02
149             	3.11072671e+02
150             	3.11102409e+02
151             	3.11133425e+02
152             	3.11164514e+02
153             	3.11193179e+02
154             	3.11221371e+02
155             	3.11249064e+02
156             	3.11277711e+02
157             	3.11305077e+02
158             	3.11331613e+02
159             	3.11358668e+02
160             	3.11384786e+02
161             	3.11409531e+02
162             	3.11435454e+02
163             	3.11460915e+02
164             	3.11487497e+02
165             	3.11512221e+02
166             	3.11538367e+02
167             	3.11563173e+02
168             	3.11587975e+02
169             	3.11612761e+02
170             	3.11636236e+02
171             	3.11660741e+02
172             	3.11686986e+02
173             	3.11710844e+02
174             	3.11734148e+02
175             	3.11755820e+02
176             	3.11778133e+02
177             	3.11799574e+02
178             	3.11821517e+02
179             	3.11842392e+02
180             	3.11862533e+02
181             	3.11882969e+02
182             	3.11902418e+02
183             	3.11922467e+02
184             	3.11943176e+02
185             	3.11963438e+02
186             	3.11984018e+02
187             	3.12005637e+02
188             	3.12026690e+02
189             	3.12047683e+02
190             	3.12067963e+02
191             	3.12085288e+02
192             	3.12102015e+02
193             	3.12118645e+02
194             	3.12135351e+02
195             	3.12152615e+02
196             	3.12168899e+02
197             	3.12186636e+02
198             	3.12205853e+02
199             	3.12223343e+02
200             	3.12242805e+02
201             	3.12261815e+02
202             	3.12281018e+02
203             	3.12299290e+02
204             	3.12316269e+02
205             	3.12331368e+02
206             	3.12343934e+02
207             	3.12355046e+02
208             	3.12366456e+02
209             	3.12378959e+02
210             	3.12390046e+02
211             	3.12399975e+02
212             	3.12411922e+02
213             	3.12425737e+02
214             	3.12441040e+02
215             	3.12456293e+02
216             	3.12473387e+02
217             	3.12489584e+02
218             	3.12504549e+02
219             	3.12519528e+02
220             	3.12532698e+02
221             	3.12545877e+02
222             	3.12557965e+02
223             	3.12570490e+02
224             	3.12583468e+02
225             	3.12596778e+02
226             	3.12610113e+02
227             	3.12620745e+02
228             	3.12631232e+02
229             	3.12641685e+02
230             	3.12649343e+02
231             	3.12657398e+02
232             	3.12664706e+02
233             	3.12672025e+02
234             	3.12678141e+02
235             	3.12685308e+02
236             	3.12692159e+02
237             	3.12700685e+02
238             	3.12709594e+02
239             	3.12719930e+02
240             	3.12730990e+02
241             	3.12743263e+02
242             	3.12755574e+02
243             	3.12768807e+02
244             	3.12780373e+02
245             	3.12788829e+02
246             	3.12797548e+02
247             	3.12804472e+02
248             	3.12811624e+02
249             	3.12818904e+02
250             	3.12825089e+02
251             	3.12832979e+02
252             	3.12842559e+02
253             	3.12851912e+02
254             	3.12859736e+02
255             	3.12867649e+02
256             	3.12876233e+02
257             	3.12882677e+02
258             	3.12887955e+02
259             	3.12893604e+02
260             	3.12899022e+02
261             	3.12905671e+02
262             	3.12912638e+02
263             	3.12922459e+02
264             	3.12932370e+02
265             	3.12941840e+02
266             	3.12948878e+02
267             	3.12955705e+02
268             	3.12960293e+02
269             	3.12966961e+02
270             	3.12973521e+02
271             	3.12977683e+02
272             	3.12982782e+02
273             	3.12987214e+02
274             	3.12993447e+02
275             	3.13001108e+02
276             	3.13007038e+02
277             	3.13013666e+02
278             	3.13018429e+02
279             	3.13025168e+02
280             	3.13031027e+02
281             	3.13037287e+02
282             	3.13041748e+02
283             	3.13046379e+02
284             	3.13052767e+02
285             	3.13057490e+02
286             	3.13063289e+02
287             	3.13068000e+02
288             	3.13071295e+02
289             	3.13076563e+02
290             	3.13082503e+02
291             	3.13086967e+02
292             	3.13090996e+02
293             	3.13095758e+02
294             	3.13101746e+02
295             	3.13105815e+02
296             	3.13110722e+02
297             	3.13115469e+02
298             	3.13118723e+02
299             	3.13124157e+02
300             	3.13130344e+02
301             	3.13133174e+02
302             	3.13136750e+02
303             	3.13141439e+02
304             	3.13144639e+02
305             	3.13148304e+02
306             	3.13151063e+02
307             	3.13155317e+02
308             	3.13158756e+02
309             	3.13162983e+02
310             	3.13165970e+02
311             	3.13170405e+02
312             	3.13175927e+02
313             	3.13179610e+02
314             	3.13183972e+02
315             	3.13188647e+02
316             	3.13193651e+02
317             	3.13197253e+02
318             	3.13201327e+02
319             	3.13204707e+02
320             	3.13206909e+02
321             	3.13210755e+02
322             	3.13215544e+02
323             	3.13218012e+02
324             	3.13222547e+02
325             	3.13227861e+02
326             	3.13230916e+02
327             	3.13235372e+02
328             	3.13239640e+02
329             	3.13244134e+02
330             	3.13246603e+02
331             	3.13250389e+02
332             	3.13254147e+02
333             	3.13256499e+02
334             	3.13260060e+02
335             	3.13264268e+02
336             	3.13266649e+02
337             	3.13269727e+02
338             	3.13271547e+02
339             	3.13274275e+02
340             	3.13276331e+02
341             	3.13279731e+02
342             	3.13283360e+02
343             	3.13285121e+02
344             	3.13287840e+02
345             	3.13291331e+02
346             	3.13293465e+02
347             	3.13296844e+02
348             	3.13300005e+02
349             	3.13303513e+02
350             	3.13307688e+02
351             	3.13309132e+02
352             	3.13311658e+02
353             	3.13313584e+02
354             	3.13316425e+02
355             	3.13318103e+02
356             	3.13320848e+02
357             	3.13324320e+02
358             	3.13326681e+02
359             	3.13329407e+02
360             	3.13332450e+02
361             	3.13333830e+02
362             	3.13336070e+02
363             	3.13337173e+02
364             	3.13339754e+02
365             	3.13341403e+02
366             	3.13344174e+02
367             	3.13346254e+02
368             	3.13349406e+02
369             	3.13352803e+02
370             	3.13354734e+02
371             	3.13357494e+02
372             	3.13359264e+02
373             	3.13361741e+02
374             	3.13363289e+02
375             	3.13365758e+02
376             	3.13367170e+02
377             	3.13369687e+02
378             	3.13371075e+02
379             	3.13373394e+02
380             	3.13374890e+02
381             	3.13377013e+02
382             	3.13379991e+02
383             	3.13382850e+02
384             	3.13385697e+02
385             	3.13386553e+02
386             	3.13388793e+02
387             	3.13391504e+02
388             	3.13392963e+02
389             	3.13395531e+02
390             	3.13397248e+02
391             	3.13399875e+02
392             	3.13403181e+02
393             	3.13404513e+02
394             	3.13406762e+02
395             	3.13408076e+02
396             	3.13410107e+02
397             	3.13412987e+02
398             	3.13413664e+02
399             	3.13415333e+02
400             	3.13415943e+02
401             	3.13417552e+02
402             	3.13418336e+02
403             	3.13419927e+02
404             	3.13420748e+02
405             	3.13422393e+02
406             	3.13424660e+02
407             	3.13425180e+02
408             	3.13426712e+02
409             	3.13428792e+02
410             	3.13429417e+02
411             	3.13430924e+02
412             	3.13433411e+02
413             	3.13433658e+02
414             	3.13435153e+02
415             	3.13435818e+02
416             	3.13437485e+02
417             	3.13438293e+02
418             	3.13440093e+02
419             	3.13441046e+02
420             	3.13442895e+02
421             	3.13445551e+02
422             	3.13446348e+02
423             	3.13448059e+02
424             	3.13450175e+02
425             	3.13450967e+02
426             	3.13452557e+02
427             	3.13454480e+02
428             	3.13455009e+02
429             	3.13456400e+02
430             	3.13458238e+02
431             	3.13458543e+02
432             	3.13459724e+02
433             	3.13460031e+02
434             	3.13461197e+02
435             	3.13461525e+02
436             	3.13462771e+02
437             	3.13463112e+02
438             	3.13464349e+02
439             	3.13464722e+02
440             	3.13465954e+02
441             	3.13466342e+02
442             	3.13467578e+02
443             	3.13467960e+02
444             	3.13469184e+02
445             	3.13471283e+02
446             	3.13471379e+02
447             	3.13472438e+02
448             	3.13474322e+02
449             	3.13474250e+02
450             	3.13475192e+02
451             	3.13476934e+02
452             	3.13476808e+02
453             	3.13477680e+02
454             	3.13479329e+02
455             	3.13479134e+02
456             	3.13479984e+02
457             	3.13481513e+02
458             	3.13481368e+02
459             	3.13482232e+02
460             	3.13483788e+02
461             	3.13483627e+02
462             	3.13484492e+02
463             	3.13486024e+02
464             	3.13485848e+02
465             	3.13486683e+02
466             	3.13488170e+02
467             	3.13488005e+02
468             	3.13488809e+02
469             	3.13490181e+02
470             	3.13490020e+02
471             	3.13490793e+02
472             	3.13492140e+02
473             	3.13491781e+02
474             	3.13492515e+02
475             	3.13493973e+02
476             	3.13493633e+02
477             	3.13494315e+02
478             	3.13494146e+02
479             	3.13494908e+02
480             	3.13496706e+02
481             	3.13496320e+02
482             	3.13496964e+02
483             	3.13498402e+02
484             	3.13497945e+02
485             	3.13498503e+02
486             	3.13499747e+02
487             	3.13499207e+02
488             	3.13499671e+02
489             	3.13500876e+02
490             	3.13500388e+02
491             	3.13500874e+02
492             	3.13502052e+02
493             	3.13501551e+02
494             	3.13502111e+02
495             	3.13503302e+02
496             	3.13502936e+02
497             	3.13503562e+02
498             	3.13504816e+02
499             	3.13504402e+02
500             	3.13505019e+02
501             	3.13506528e+02
502             	3.13506047e+02
503             	3.13506592e+02
504             	3.13508026e+02
505             	3.13507459e+02
506             	3.13507934e+02
507             	3.13509084e+02
508             	3.13508528e+02
509             	3.13508958e+02
510             	3.13510003e+02
511             	3.13509408e+02
512             	3.13509780e+02
513             	3.13510797e+02
514             	3.13510112e+02
515             	3.13510434e+02
516             	3.13511610e+02
517             	3.13510847e+02
518             	3.13511179e+02
519             	3.13512378e+02
520             	3.13511648e+02
521             	3.13512007e+02
522             	3.13513235e+02
523             	3.13512568e+02
524             	3.13512967e+02
525             	3.13514078e+02
526             	3.13513445e+02
527             	3.13513833e+02
528             	3.13514884e+02
529             	3.13514254e+02
530             	3.13514621e+02
531             	3.13515661e+02
532             	3.13514997e+02
533             	3.13515345e+02
534             	3.13516434e+02
535             	3.13515759e+02
536             	3.13516123e+02
537             	3.13517227e+02
538             	3.13516552e+02
539             	3.13516913e+02
540             	3.13518072e+02
541             	3.13517357e+02
542             	3.13517692e+02
543             	3.13518934e+02
544             	3.13518191e+02
545             	3.13518542e+02
546             	3.13519807e+02
547             	3.13519029e+02
548             	3.13519344e+02
549             	3.13520696e+02
550             	3.13519871e+02
551             	3.13520153e+02
552             	3.13521348e+02
553             	3.13520528e+02
554             	3.13520784e+02
555             	3.13521846e+02
556             	3.13521026e+02
557             	3.13521262e+02
558             	3.13522267e+02
559             	3.13521451e+02
560             	3.13521689e+02
561             	3.13522676e+02
562             	3.13521886e+02
563             	3.13522145e+02
564             	3.13523117e+02
565             	3.13522324e+02
566             	3.13522560e+02
567             	3.13523567e+02
568             	3.13522792e+02
569             	3.13523055e+02
570             	3.13524076e+02
571             	3.13523312e+02
572             	3.13523597e+02
573             	3.13524566e+02
574             	3.13523817e+02
575             	3.13524089e+02
576             	3.13525029e+02
577             	3.13524281e+02
578             	3.13524533e+02
579             	3.13525453e+02
580             	3.13524686e+02
581             	3.13524927e+02
582             	3.13525898e+02
583             	3.13525102e+02
584             	3.13525342e+02
585             	3.13526344e+02
586             	3.13525534e+02
587             	3.13525792e+02
588             	3.13526869e+02
589             	3.13526067e+02
590             	3.13526316e+02
591             	3.13527504e+02
592             	3.13526642e+02
593             	3.13526863e+02
594             	3.13528041e+02
595             	3.13527180e+02
596             	3.13527377e+02
597             	3.13528460e+02
598             	3.13527575e+02
599             	3.13527753e+02
600             	3.13528704e+02
601             	3.13527827e+02
602             	3.13527988e+02
603             	3.13528858e+02
604             	3.13527988e+02
605             	3.13528144e+02
606             	3.13529085e+02
607             	3.13528192e+02
608             	3.13528361e+02
609             	3.13529414e+02
610             	3.13528513e+02
611             	3.13528694e+02
612             	3.13529778e+02
613             	3.13528890e+02
614             	3.13529079e+02
615             	3.13530163e+02
616             	3.13529284e+02
617             	3.13529501e+02
618             	3.13530471e+02
619             	3.13529621e+02
620             	3.13529822e+02
621             	3.13530772e+02
622             	3.13529956e+02
623             	3.13530158e+02
624             	3.13531056e+02
625             	3.13530247e+02
626             	3.13530435e+02
627             	3.13531387e+02
628             	3.13530505e+02
629             	3.13530709e+02
630             	3.13531762e+02
631             	3.13530897e+02
632             	3.13531097e+02
633             	3.13532163e+02
634             	3.13531291e+02
635             	3.13531474e+02
636             	3.13532473e+02
637             	3.13531589e+02
638             	3.13531753e+02
639             	3.13532673e+02
640             	3.13531792e+02
641             	3.13531944e+02
642             	3.13532828e+02
643             	3.13531936e+02
644             	3.13532070e+02
645             	3.13532935e+02
646             	3.13532034e+02
647             	3.13532166e+02
648             	3.13533030e+02
649             	3.13532137e+02
650             	3.13532278e+02
651             	3.13533154e+02
652             	3.13532285e+02
653             	3.13532450e+02
654             	3.13533339e+02
655             	3.13532493e+02
656             	3.13532683e+02
657             	3.13533619e+02
658             	3.13532768e+02
659             	3.13532930e+02
660             	3.13533917e+02
661             	3.13533031e+02
662             	3.13533190e+02
663             	3.13534181e+02
664             	3.13533258e+02
665             	3.13533399e+02
666             	3.13534375e+02
667             	3.13533446e+02
668             	3.13533577e+02
669             	3.13534512e+02
670             	3.13533589e+02
671             	3.13533707e+02
672             	3.13534562e+02
673             	3.13533636e+02
674             	3.13533745e+02
675             	3.13534587e+02
676             	3.13533664e+02
677             	3.13533777e+02
678             	3.13534673e+02
679             	3.13533745e+02
680             	3.13533871e+02
681             	3.13534778e+02
682             	3.13533871e+02
683             	3.13534006e+02
684             	3.13534895e+02
685             	3.13533981e+02
686             	3.13534108e+02
687             	3.13535012e+02
688             	3.13534100e+02
689             	3.13534238e+02
690             	3.13535198e+02
691             	3.13534274e+02
692             	3.13534406e+02
693             	3.13535353e+02
694             	3.13534429e+02
695             	3.13534555e+02
696             	3.13535439e+02
697             	3.13534519e+02
698             	3.13534635e+02
699             	3.13535475e+02
700             	3.13534561e+02
701             	3.13534679e+02
702             	3.13535564e+02
703             	3.13534646e+02
704             	3.13534773e+02
705             	3.13535676e+02
706             	3.13534761e+02
707             	3.13534896e+02
708             	3.13535811e+02
709             	3.13534897e+02
710             	3.13535039e+02
711             	3.13536000e+02
712             	3.13535074e+02
713             	3.13535208e+02
714             	3.13536184e+02
715             	3.13535240e+02
716             	3.13535363e+02
717             	3.13536353e+02
718             	3.13535384e+02
719             	3.13535488e+02
720             	3.13536447e+02
721             	3.13535472e+02
722             	3.13535568e+02
723             	3.13536474e+02
724             	3.13535520e+02
725             	3.13535622e+02
726             	3.13536511e+02
727             	3.13535570e+02
728             	3.13535682e+02
729             	3.13536562e+02
730             	3.13535636e+02
731             	3.13535756e+02
732             	3.13536624e+02
733             	3.13535710e+02
734             	3.13535836e+02
735             	3.13536707e+02
736             	3.13535797e+02
737             	3.13535925e+02
738             	3.13536843e+02
739             	3.13535910e+02
740             	3.13536027e+02
741             	3.13536947e+02
742             	3.13535992e+02
743             	3.13536090e+02
744             	3.13537012e+02
745             	3.13536036e+02
746             	3.13536123e+02
747             	3.13536999e+02
748             	3.13536035e+02
749             	3.13536127e+02
750             	3.13537006e+02
751             	3.13536055e+02
752             	3.13536159e+02
753             	3.13537042e+02
754             	3.13536105e+02
755             	3.13536221e+02
756             	3.13537096e+02
757             	3.13536171e+02
758             	3.13536291e+02
759             	3.13537188e+02
760             	3.13536254e+02
761             	3.13536372e+02
762             	3.13537305e+02
763             	3.13536353e+02
764             	3.13536462e+02
765             	3.13537419e+02
766             	3.13536448e+02
767             	3.13536546e+02
768             	3.13537477e+02
769             	3.13536503e+02
770             	3.13536596e+02
771             	3.13537501e+02
772             	3.13536550e+02
773             	3.13536649e+02
774             	3.13537558e+02
775             	3.13536598e+02
776             	3.13536701e+02
777             	3.13537620e+02
778             	3.13536658e+02
779             	3.13536759e+02
780             	3.13537681e+02
781             	3.13536715e+02
782             	3.13536815e+02
783             	3.13537756e+02
784             	3.13536778e+02
785             	3.13536871e+02
786             	3.13537833e+02
787             	3.13536839e+02
788             	3.13536922e+02
789             	3.13537885e+02
790             	3.13536884e+02
791             	3.13536961e+02
792             	3.13537871e+02
793             	3.13536882e+02
794             	3.13536964e+02
795             	3.13537841e+02
796             	3.13536877e+02
797             	3.13536976e+02
798             	3.13537861e+02
799             	3.13536913e+02
800             	3.13537023e+02
801             	3.13537935e+02
802             	3.13536985e+02
803             	3.13537092e+02
804             	3.13538004e+02
805             	3.13537053e+02
806             	3.13537164e+02
807             	3.13538079e+02
808             	3.13537134e+02
809             	3.13537248e+02
810             	3.13538166e+02
811             	3.13537223e+02
812             	3.13537336e+02
813             	3.13538238e+02
814             	3.13537291e+02
815             	3.13537397e+02
816             	3.13538309e+02
817             	3.13537347e+02
818             	3.13537446e+02
819             	3.13538350e+02
820             	3.13537380e+02
821             	3.13537471e+02
822             	3.13538392e+02
823             	3.13537411e+02
824             	3.13537499e+02
825             	3.13538435e+02
826             	3.13537451e+02
827             	3.13537540e+02
828             	3.13538471e+02
829             	3.13537483e+02
830             	3.13537568e+02
831             	3.13538471e+02
832             	3.13537506e+02
833             	3.13537599e+02
834             	3.13538477e+02
835             	3.13537523e+02
836             	3.13537623e+02
837             	3.13538484e+02
838             	3.13537540e+02
839             	3.13537644e+02
840             	3.13538530e+02
841             	3.13537573e+02
842             	3.13537668e+02
843             	3.13538569e+02
844             	3.13537595e+02
845             	3.13537688e+02
846             	3.13538633e+02
847             	3.13537649e+02
848             	3.13537741e+02
849             	3.13538683e+02
850             	3.13537707e+02
851             	3.13537800e+02
852             	3.13538699e+02
853             	3.13537732e+02
854             	3.13537825e+02
855             	3.13538706e+02
856             	3.13537740e+02
857             	3.13537831e+02
858             	3.13538722e+02
859             	3.13537748e+02
860             	3.13537834e+02
861             	3.13538746e+02
862             	3.13537755e+02
863             	3.13537840e+02
864             	3.13538766e+02
865             	3.13537781e+02
866             	3.13537868e+02
867             	3.13538802e+02
868             	3.13537812e+02
869             	3.13537894e+02
870             	3.13538825e+02
871             	3.13537830e+02
872             	3.13537911e+02
873             	3.13538822e+02
874             	3.13537835e+02
875             	3.13537916e+02
876             	3.13538811e+02
877             	3.13537833e+02
878             	3.13537921e+02
879             	3.13538809e+02
880             	3.13537839e+02
881             	3.13537931e+02
882             	3.13538822e+02
883             	3.13537856e+02
884             	3.13537949e+02
885             	3.13538852e+02
886             	3.13537880e+02
887             	3.13537970e+02
888             	3.13538877e+02
889             	3.13537899e+02
890             	3.13537986e+02
891             	3.13538897e+02
892             	3.13537915e+02
893             	3.13537999e+02
894             	3.13538907e+02
895             	3.13537923e+02
896             	3.13538007e+02
897             	3.13538909e+02
898             	3.13537930e+02
899             	3.13538018e+02
900             	3.13538918e+02
901             	3.13537946e+02
902             	3.13538037e+02
903             	3.13538933e+02
904             	3.13537966e+02
905             	3.13538059e+02
906             	3.13538955e+02
907             	3.13537989e+02
908             	3.13538083e+02
909             	3.13538990e+02
910             	3.13538019e+02
911             	3.13538108e+02
912             	3.13539015e+02
913             	3.13538037e+02
914             	3.13538123e+02
915             	3.13539029e+02
916             	3.13538051e+02
917             	3.13538136e+02
918             	3.13539034e+02
919             	3.13538055e+02
920             	3.13538139e+02
921             	3.13539038e+02
922             	3.13538059e+02
923             	3.13538144e+02
924             	3.13539046e+02
925             	3.13538066e+02
926             	3.13538151e+02
927             	3.13539065e+02
928             	3.13538083e+02
929             	3.13538169e+02
930             	3.13539088e+02
931             	3.13538104e+02
932             	3.13538189e+02
933             	3.13539108e+02