# Region        : cellZone component_2
# Cells         : 128
# Volume        : 2.50848941e-01
# Time          	volAverage(T)
1               	3.00376320e+02
2               	3.00750163e+02
3               	3.01099664e+02
4               	3.01435073e+02
5               	3.01763957e+02
6               	3.02088938e+02
7               	3.02411149e+02
8               	3.02732341e+02
9               	3.03052795e+02
10              	3.03371817e+02
11              	3.03683509e+02
12              	3.03985554e+02
13              	3.04279736e+02
14              	3.04568792e+02
15              	3.04855527e+02
16              	3.05139995e+02
17              	3.05423590e+02
18              	3.05706628e+02
19              	3.05983076e+02
20              	3.06255494e+02
21              	3.06527385e+02
22              	3.06796033e+02
23              	3.07061106e+02
24              	3.07324644e+02
25              	3.07587429e+02
26              	3.07850156e+02
27              	3.08110842e+02
28              	3.08358976e+02
29              	3.08605245e+02
30              	3.08842740e+02
31              	3.09074183e+02
32              	3.09310500e+02
33              	3.09524965e+02
34              	3.09720863e+02
35              	3.09901359e+02
36              	3.10066286e+02
37              	3.10219702e+02
38              	3.10378165e+02
39              	3.10546661e+02
40              	3.10722673e+02
41              	3.10900985e+02
42              	3.11081785e+02
43              	3.11248558e+02
44              	3.11423578e+02
45              	3.11601033e+02
46              	3.11771828e+02
47              	3.11943810e+02
48              	3.12123899e+02
49              	3.12293270e+02
50              	3.12459869e+02
51              	3.12619986e+02
52              	3.12773999e+02
53              	3.12925188e+02
54              	3.13064029e+02
55              	3.13198817e+02
56              	3.13335872e+02
57              	3.13467302e+02
58              	3.13594087e+02
59              	3.13715875e+02
60              	3.13836052e+02
61              	3.13955666e+02
62              	3.14073079e+02
63              	3.14188126e+02
64              	3.14302150e+02
65              	3.14414967e+02
66              	3.14526726e+02
67              	3.14637094e+02
68              	3.14757539e+02
69              	3.14877466e+02
70              	3.14995823e+02
71              	3.15112830e+02
72              	3.15229010e+02
73              	3.15342989e+02
74              	3.15455726e+02
75              	3.15564645e+02
76              	3.15682252e+02
77              	3.15797557e+02
78              	3.15909437e+02
79              	3.16015762e+02
80              	3.16120051e+02
81              	3.16222185e+02
82              	3.16319409e+02
83              	3.16411678e+02
84              	3.16499570e+02
85              	3.16585921e+02
86              	3.16673211e+02
87              	3.16761120e+02
88              	3.16845858e+02
89              	3.16927075e+02
90              	3.17005954e+02
91              	3.17081674e+02
92              	3.17154366e+02
93              	3.17227028e+02
94              	3.17298624e+02
95              	3.17362484e+02
96              	3.17426352e+02
97              	3.17478407e+02
98              	3.17534405e+02
99              	3.17589943e+02
100             	3.17646143e+02
101             	3.17701291e+02
102             	3.17753523e+02
103             	3.17802535e+02
104             	3.17849175e+02
105             	3.17896730e+02
106             	3.17950630e+02
107             	3.18003784e+02
108             	3.18054464e+02
109             	3.18103287e+02
110             	3.18139762e+02
111             	3.18182587e+02
112             	3.18229479e+02
113             	3.18276638e+02
114             	3.18321813e+02
115             	3.18364997e+02
116             	3.18408027e+02
117             	3.18451038e+02
118             	3.18490463e+02
119             	3.18531856e+02
120             	3.18568279e+02
121             	3.18605245e+02
122             	3.18644473e+02
123             	3.18685707e+02
124             	3.18728148e+02
125             	3.18770606e+02
126             	3.18813806e+02
127             	3.18858150e+02
128             	3.18901709e+02
129             	3.18944250e+02
130             	3.18985529e+02
131             	3.19027191e+02
132             	3.19069282e+02
133             	3.19108376e+02
134             	3.19147785e+02
135             	3.19188355e+02
136             	3.19231608e+02
137             	3.19274777e+02
138             	3.19317612e+02
139             	3.19359750e+02
140             	3.19396261e+02
141             	3.19436500e+02
142             	3.19476049e+02
143             	3.19515944e+02
144             	3.19555680e+02
145             	3.19593735e+02
146             	3.19630144e+02
147             	3.19663134e+02
148             	3.19699035e+02
149             	3.19733685e+02
150             	3.19766715e+02
151             	3.19799051e+02
152             	3.19828290e+02
153             	3.19857342e+02
154             	3.19885689e+02
155             	3.19916189e+02
156             	3.19946955e+02
157             	3.19976548e+02
158             	3.20005814e+02
159             	3.20035802e+02
160             	3.20062834e+02
161             	3.20088237e+02
162             	3.20114398e+02
163             	3.20142399e+02
164             	3.20166424e+02
165             	3.20189963e+02
166             	3.20215501e+02
167             	3.20240955e+02
168             	3.20265444e+02
169             	3.20292170e+02
170             	3.20315140e+02
171             	3.20335941e+02
172             	3.20356491e+02
173             	3.20377704e+02
174             	3.20398542e+02
175             	3.20417278e+02
176             	3.20434495e+02
177             	3.20454559e+02
178             	3.20475914e+02
179             	3.20496303e+02
180             	3.20515828e+02
181             	3.20535042e+02
182             	3.20554327e+02
183             	3.20573693e+02
184             	3.20592143e+02
185             	3.20610716e+02
186             	3.20629433e+02
187             	3.20647428e+02
188             	3.20665415e+02
189             	3.20683503e+02
190             	3.20701094e+02
191             	3.20718139e+02
192             	3.20735019e+02
193             	3.20752465e+02
194             	3.20768231e+02
195             	3.20780005e+02
196             	3.20794870e+02
197             	3.20811300e+02
198             	3.20826201e+02
199             	3.20842079e+02
200             	3.20857907e+02
201             	3.20874191e+02
202             	3.20889529e+02
203             	3.20906488e+02
204             	3.20921692e+02
205             	3.20936492e+02
206             	3.20951300e+02
207             	3.20965855e+02
208             	3.20979805e+02
209             	3.20992750e+02
210             	3.21006310e+02
211             	3.21019782e+02
212             	3.21032810e+02
213             	3.21045637e+02
214             	3.21057810e+02
215             	3.21069861e+02
216             	3.21081993e+02
217             	3.21094048e+02
218             	3.21105034e+02
219             	3.21116103e+02
220             	3.21128510e+02
221             	3.21141123e+02
222             	3.21153580e+02
223             	3.21166084e+02
224             	3.21178387e+02
225             	3.21191827e+02
226             	3.21203602e+02
227             	3.21215087e+02
228             	3.21226041e+02
229             	3.21236595e+02
230             	3.21248177e+02
231             	3.21259341e+02
232             	3.21270574e+02
233             	3.21281510e+02
234             	3.21292350e+02
235             	3.21303526e+02
236             	3.21314608e+02
237             	3.21324800e+02
238             	3.21335009e+02
239             	3.21344996e+02
240             	3.21355272e+02
241             	3.21364706e+02
242             	3.21373744e+02
243             	3.21383775e+02
244             	3.21393705e+02
245             	3.21403733e+02
246             	3.21413591e+02
247             	3.21422518e+02
248             	3.21431428e+02
249             	3.21440479e+02
250             	3.21449566e+02
251             	3.21458560e+02
252             	3.21467364e+02
253             	3.21475934e+02
254             	3.21484611e+02
255             	3.21493227e+02
256             	3.21501572e+02
257             	3.21509648e+02
258             	3.21517667e+02
259             	3.21525622e+02
260             	3.21533420e+02
261             	3.21541193e+02
262             	3.21549006e+02
263             	3.21556699e+02
264             	3.21564221e+02
265             	3.21571547e+02
266             	3.21578788e+02
267             	3.21586039e+02
268             	3.21593117e+02
269             	3.21600004e+02
270             	3.21606702e+02
271             	3.21613256e+02
272             	3.21619671e+02
273             	3.21625896e+02
274             	3.21631985e+02
275             	3.21637980e+02
276             	3.21643975e+02
277             	3.21649972e+02
278             	3.21655921e+02
279             	3.21661775e+02
280             	3.21667541e+02
281             	3.21673238e+02
282             	3.21678869e+02
283             	3.21684208e+02
284             	3.21689424e+02
285             	3.21694599e+02
286             	3.21699695e+02
287             	3.21704666e+02
288             	3.21709665e+02
289             	3.21714519e+02
290             	3.21719327e+02
291             	3.21724140e+02
292             	3.21728886e+02
293             	3.21733620e+02
294             	3.21738342e+02
295             	3.21743073e+02
296             	3.21747561e+02
297             	3.21752023e+02
298             	3.21756386e+02
299             	3.21760692e+02
300             	3.21764920e+02
301             	3.21769120e+02
302             	3.21773257e+02
303             	3.21777303e+02
304             	3.21781228e+02
305             	3.21785083e+02
306             	3.21788894e+02
307             	3.21792626e+02
308             	3.21796256e+02
309             	3.21799808e+02
310             	3.21803293e+02
311             	3.21806715e+02
312             	3.21810085e+02
313             	3.21813421e+02
314             	3.21816656e+02
315             	3.21819824e+02
316             	3.21822943e+02
317             	3.21826020e+02
318             	3.21829051e+02
319             	3.21832033e+02
320             	3.21834978e+02
321             	3.21837881e+02
322             	3.21840745e+02
323             	3.21843569e+02
324             	3.21846360e+02
325             	3.21849117e+02
326             	3.21851841e+02
327             	3.21854524e+02
328             	3.21857180e+02
329             	3.21859846e+02
330             	3.21862485e+02
331             	3.21865082e+02
332             	3.21867702e+02
333             	3.21870209e+02
334             	3.21872666e+02
335             	3.21875101e+02
336             	3.21877505e+02
337             	3.21879865e+02
338             	3.21882176e+02
339             	3.21884436e+02
340             	3.21886644e+02
341             	3.21888801e+02
342             	3.21890905e+02
343             	3.21892955e+02
344             	3.21894946e+02
345             	3.21896897e+02
346             	3.21898795e+02
347             	3.21900676e+02
348             	3.21902511e+02
349             	3.21904310e+02
350             	3.21906106e+02
351             	3.21907872e+02
352             	3.21909613e+02
353             	3.21911331e+02
354             	3.21913035e+02
355             	3.21914706e+02
356             	3.21916364e+02
357             	3.21917992e+02
358             	3.21919608e+02
359             	3.21921203e+02
360             	3.21922773e+02
361             	3.21924319e+02
362             	3.21925842e+02
363             	3.21927340e+02
364             	3.21928795e+02
365             	3.21930246e+02
366             	3.21931680e+02
367             	3.21933086e+02
368             	3.21934465e+02
369             	3.21935849e+02
370             	3.21937150e+02
371             	3.21938410e+02
372             	3.21939649e+02
373             	3.21940871e+02
374             	3.21942060e+02
375             	3.21943214e+02
376             	3.21944350e+02
377             	3.21945452e+02
378             	3.21946531e+02
379             	3.21947594e+02
380             	3.21948645e+02
381             	3.21949671e+02
382             	3.21950695e+02
383             	3.21951709e+02
384             	3.21952709e+02
385             	3.21953692e+02
386             	3.21954659e+02
387             	3.21955612e+02
388             	3.21956549e+02
389             	3.21957477e+02
390             	3.21958394e+02
391             	3.21959294e+02
392             	3.21960171e+02
393             	3.21961027e+02
394             	3.21961864e+02
395             	3.21962700e+02
396             	3.21963516e+02
397             	3.21964321e+02
398             	3.21965105e+02
399             	3.21965871e+02
400             	3.21966640e+02
401             	3.21967354e+02
402             	3.21968035e+02
403             	3.21968697e+02
404             	3.21969334e+02
405             	3.21969942e+02
406             	3.21970522e+02
407             	3.21971057e+02
408             	3.21971600e+02
409             	3.21972131e+02
410             	3.21972642e+02
411             	3.21973141e+02
412             	3.21973634e+02
413             	3.21974117e+02
414             	3.21974594e+02
415             	3.21975070e+02
416             	3.21975539e+02
417             	3.21976002e+02
418             	3.21976460e+02
419             	3.21976899e+02
420             	3.21977320e+02
421             	3.21977727e+02
422             	3.21978122e+02
423             	3.21978526e+02
424             	3.21978944e+02
425             	3.21979330e+02
426             	3.21979708e+02
427             	3.21980102e+02
428             	3.21980472e+02
429             	3.21980870e+02
430             	3.21981274e+02
431             	3.21981667e+02
432             	3.21982047e+02
433             	3.21982439e+02
434             	3.21982811e+02
435             	3.21983174e+02
436             	3.21983533e+02
437             	3.21983911e+02
438             	3.21984258e+02
439             	3.21984593e+02
440             	3.21984919e+02
441             	3.21985218e+02
442             	3.21985516e+02
443             	3.21985801e+02
444             	3.21986092e+02
445             	3.21986378e+02
446             	3.21986653e+02
447             	3.21986915e+02
448             	3.21987161e+02
449             	3.21987399e+02
450             	3.21987613e+02
451             	3.21987835e+02
452             	3.21988052e+02
453             	3.21988262e+02
454             	3.21988482e+02
455             	3.21988696e+02
456             	3.21988885e+02
457             	3.21989069e+02
458             	3.21989261e+02
459             	3.21989457e+02
460             	3.21989650e+02
461             	3.21989831e+02
462             	3.21990010e+02
463             	3.21990183e+02
464             	3.21990339e+02
465             	3.21990500e+02
466             	3.21990685e+02
467             	3.21990875e+02
468             	3.21991066e+02
469             	3.21991251e+02
470             	3.21991437e+02
471             	3.21991628e+02
472             	3.21991825e+02
473             	3.21992029e+02
474             	3.21992272e+02
475             	3.21992484e+02
476             	3.21992679e+02
477             	3.21992871e+02
478             	3.21993077e+02
479             	3.21993279e+02
480             	3.21993464e+02
481             	3.21993648e+02
482             	3.21993828e+02
483             	3.21994001e+02
484             	3.21994167e+02
485             	3.21994324e+02
486             	3.21994475e+02
487             	3.21994617e+02
488             	3.21994757e+02
489             	3.21994883e+02
490             	3.21995001e+02
491             	3.21995108e+02
492             	3.21995201e+02
493             	3.21995284e+02
494             	3.21995368e+02
495             	3.21995473e+02
496             	3.21995556e+02
497             	3.21995630e+02
498             	3.21995695e+02
499             	3.21995775e+02
500             	3.21995860e+02
501             	3.21995940e+02
502             	3.21995950e+02
503             	3.21996020e+02
504             	3.21996104e+02
505             	3.21996172e+02
506             	3.21996233e+02
507             	3.21996291e+02
508             	3.21996352e+02
509             	3.21996439e+02
510             	3.21996495e+02
511             	3.21996552e+02
512             	3.21996621e+02
513             	3.21996684e+02
514             	3.21996758e+02
515             	3.21996835e+02
516             	3.21996903e+02
517             	3.21996966e+02
518             	3.21997028e+02
519             	3.21997082e+02
520             	3.21997143e+02
521             	3.21997196e+02
522             	3.21997257e+02
523             	3.21997328e+02
524             	3.21997410e+02
525             	3.21997532e+02
526             	3.21997622e+02
527             	3.21997708e+02
528             	3.21997804e+02
529             	3.21997905e+02
530             	3.21997988e+02
531             	3.21998086e+02
532             	3.21998207e+02
533             	3.21998327e+02
534             	3.21998445e+02
535             	3.21998554e+02
536             	3.21998652e+02
537             	3.21998736e+02
538             	3.21998807e+02
539             	3.21998872e+02
540             	3.21998930e+02
541             	3.21998990e+02
542             	3.21999056e+02
543             	3.21999117e+02
544             	3.21999165e+02
545             	3.21999226e+02
546             	3.21999304e+02
547             	3.21999343e+02
548             	3.21999371e+02
549             	3.21999401e+02
550             	3.21999438e+02
551             	3.21999464e+02
552             	3.21999484e+02
553             	3.21999509e+02
554             	3.21999534e+02
555             	3.21999552e+02
556             	3.21999567e+02
557             	3.21999592e+02
558             	3.21999579e+02
559             	3.21999612e+02
560             	3.21999664e+02
561             	3.21999790e+02
562             	3.21999833e+02
563             	3.21999863e+02
564             	3.21999920e+02
565             	3.21999998e+02
566             	3.22000083e+02
567             	3.22000165e+02
568             	3.22000243e+02
569             	3.22000298e+02
570             	3.22000359e+02
571             	3.22000418e+02
572             	3.22000485e+02
573             	3.22000542e+02
574             	3.22000597e+02
575             	3.22000654e+02
576             	3.22000724e+02
577             	3.22000792e+02
578             	3.22000844e+02
579             	3.22000908e+02
580             	3.22000975e+02
581             	3.22001036e+02
582             	3.22001096e+02
583             	3.22001174e+02
584             	3.22001262e+02
585             	3.22001349e+02
586             	3.22001441e+02
587             	3.22001538e+02
588             	3.22001623e+02
589             	3.22001699e+02
590             	3.22001774e+02
591             	3.22001852e+02
592             	3.22001922e+02
593             	3.22001984e+02
594             	3.22002053e+02
595             	3.22002129e+02
596             	3.22002206e+02
597             	3.22002288e+02
598             	3.22002377e+02
599             	3.22002469e+02
600             	3.22002542e+02
601             	3.22002617e+02
602             	3.22002687e+02
603             	3.22002747e+02
604             	3.22002799e+02
605             	3.22002858e+02
606             	3.22002920e+02
607             	3.22002980e+02
608             	3.22003043e+02
609             	3.22003107e+02
610             	3.22003162e+02
611             	3.22003227e+02
612             	3.22003301e+02
613             	3.22003366e+02
614             	3.22003442e+02
615             	3.22003527e+02
616             	3.22003631e+02
617             	3.22003714e+02
618             	3.22003795e+02
619             	3.22003882e+02
620             	3.22003973e+02
621             	3.22004061e+02
622             	3.22004163e+02
623             	3.22004272e+02
624             	3.22004389e+02
625             	3.22004492e+02
626             	3.22004587e+02
627             	3.22004685e+02
628             	3.22004784e+02
629             	3.22004880e+02
630             	3.22004967e+02
631             	3.22005049e+02
632             	3.22005134e+02
633             	3.22005212e+02
634             	3.22005283e+02
635             	3.22005293e+02
636             	3.22005359e+02
637             	3.22005445e+02
638             	3.22005525e+02
639             	3.22005591e+02
640             	3.22005651e+02
641             	3.22005717e+02
642             	3.22005790e+02
643             	3.22005865e+02
644             	3.22005945e+02
645             	3.22006056e+02
646             	3.22006106e+02
647             	3.22006134e+02
648             	3.22006156e+02
649             	3.22006187e+02
650             	3.22006219e+02
651             	3.22006265e+02
652             	3.22006312e+02
653             	3.22006342e+02
654             	3.22006396e+02
655             	3.22006469e+02
656             	3.22006516e+02
657             	3.22006583e+02
658             	3.22006662e+02
659             	3.22006752e+02
660             	3.22006862e+02
661             	3.22006995e+02
662             	3.22007098e+02
663             	3.22007196e+02
664             	3.22007302e+02
665             	3.22007408e+02
666             	3.22007484e+02
667             	3.22007584e+02
668             	3.22007680e+02
669             	3.22007756e+02
670             	3.22007816e+02
671             	3.22007865e+02
672             	3.22007912e+02
673             	3.22007990e+02
674             	3.22008028e+02
675             	3.22008056e+02
676             	3.22008093e+02
677             	3.22008116e+02
678             	3.22008133e+02
679             	3.22008165e+02
680             	3.22008192e+02
681             	3.22008211e+02
682             	3.22008230e+02
683             	3.22008251e+02
684             	3.22008286e+02
685             	3.22008316e+02
686             	3.22008349e+02
687             	3.22008374e+02
688             	3.22008402e+02
689             	3.22008451e+02
690             	3.22008507e+02
691             	3.22008561e+02
692             	3.22008611e+02
693             	3.22008666e+02
694             	3.22008726e+02
695             	3.22008786e+02
696             	3.22008849e+02
697             	3.22008918e+02
698             	3.22008992e+02
699             	3.22009070e+02
700             	3.22009152e+02
701             	3.22009235e+02
702             	3.22009318e+02
703             	3.22009404e+02
704             	3.22009492e+02
705             	3.22009585e+02
706             	3.22009679e+02
707             	3.22009774e+02
708             	3.22009870e+02
709             	3.22009965e+02
710             	3.22010053e+02
711             	3.22010143e+02
712             	3.22010234e+02
713             	3.22010320e+02
714             	3.22010401e+02
715             	3.22010475e+02
716             	3.22010541e+02
717             	3.22010601e+02
718             	3.22010651e+02
719             	3.22010704e+02
720             	3.22010745e+02
721             	3.22010778e+02
722             	3.22010811e+02
723             	3.22010845e+02
724             	3.22010871e+02
725             	3.22010893e+02
726             	3.22010897e+02
727             	3.22010897e+02
728             	3.22010914e+02
729             	3.22010929e+02
730             	3.22010937e+02
731             	3.22010944e+02
732             	3.22010956e+02
733             	3.22010989e+02
734             	3.22011031e+02
735             	3.22011094e+02
736             	3.22011119e+02
737             	3.22011185e+02
738             	3.22011257e+02
739             	3.22011323e+02
740             	3.22011414e+02
741             	3.22011436e+02
742             	3.22011431e+02
743             	3.22011442e+02
744             	3.22011453e+02
745             	3.22011456e+02
746             	3.22011450e+02
747             	3.22011436e+02
748             	3.22011410e+02
749             	3.22011361e+02
750             	3.22011296e+02
751             	3.22011230e+02
752             	3.22011153e+02
753             	3.22011053e+02
754             	3.22010979e+02
755             	3.22010919e+02
756             	3.22010868e+02
757             	3.22010830e+02
758             	3.22010802e+02
759             	3.22010785e+02
760             	3.22010779e+02
761             	3.22010790e+02
762             	3.22010814e+02
763             	3.22010838e+02
764             	3.22010869e+02
765             	3.22010923e+02
766             	3.22010974e+02
767             	3.22011020e+02
768             	3.22011088e+02
769             	3.22011168e+02
770             	3.22011257e+02
771             	3.22011348e+02
772             	3.22011453e+02
773             	3.22011583e+02
774             	3.22011726e+02
775             	3.22011856e+02
776             	3.22011978e+02
777             	3.22012097e+02
778             	3.22012232e+02
779             	3.22012367e+02
780             	3.22012459e+02
781             	3.22012536e+02
782             	3.22012616e+02
783             	3.22012688e+02
784             	3.22012766e+02
785             	3.22012836e+02
786             	3.22012900e+02
787             	3.22012966e+02
788             	3.22013029e+02
789             	3.22013095e+02
790             	3.22013160e+02
791             	3.22013223e+02
792             	3.22013274e+02
793             	3.22013320e+02
794             	3.22013352e+02
795             	3.22013388e+02
796             	3.22013420e+02
797             	3.22013442e+02
798             	3.22013465e+02
799             	3.22013489e+02
800             	3.22013510e+02
801             	3.22013531e+02
802             	3.22013573e+02
803             	3.22013614e+02
804             	3.22013657e+02
805             	3.22013695e+02
806             	3.22013751e+02
807             	3.22013813e+02
808             	3.22013872e+02
809             	3.22013925e+02
810             	3.22013971e+02
811             	3.22014022e+02
812             	3.22014072e+02
813             	3.22014125e+02
814             	3.22014176e+02
815             	3.22014227e+02
816             	3.22014256e+02
817             	3.22014307e+02
818             	3.22014364e+02
819             	3.22014399e+02
820             	3.22014422e+02
821             	3.22014435e+02
822             	3.22014456e+02
823             	3.22014476e+02
824             	3.22014491e+02
825             	3.22014504e+02
826             	3.22014518e+02
827             	3.22014535e+02
828             	3.22014557e+02
829             	3.22014585e+02
830             	3.22014620e+02
831             	3.22014663e+02
832             	3.22014713e+02
833             	3.22014771e+02
834             	3.22014836e+02
835             	3.22014911e+02
836             	3.22014994e+02
837             	3.22015084e+02
838             	3.22015180e+02
839             	3.22015281e+02
840             	3.22015384e+02
841             	3.22015487e+02
842             	3.22015588e+02
843             	3.22015691e+02
844             	3.22015801e+02
845             	3.22015914e+02
846             	3.22016028e+02
847             	3.22016144e+02
848             	3.22016258e+02
849             	3.22016374e+02
850             	3.22016487e+02
851             	3.22016597e+02
852             	3.22016703e+02
853             	3.22016805e+02
854             	3.22016900e+02
855             	3.22016992e+02
856             	3.22017095e+02
857             	3.22017199e+02
858             	3.22017307e+02
859             	3.22017424e+02
860             	3.22017542e+02
861             	3.22017648e+02
862             	3.22017754e+02
863             	3.22017860e+02
864             	3.22017961e+02
865             	3.22018048e+02
866             	3.22018123e+02
867             	3.22018187e+02
868             	3.22018245e+02
869             	3.22018303e+02
870             	3.22018347e+02
871             	3.22018386e+02
872             	3.22018422e+02
873             	3.22018461e+02
874             	3.22018502e+02
875             	3.22018535e+02
876             	3.22018578e+02
877             	3.22018622e+02
878             	3.22018669e+02
879             	3.22018716e+02
880             	3.22018763e+02
881             	3.22018810e+02
882             	3.22018856e+02
883             	3.22018900e+02
884             	3.22018941e+02
885             	3.22018978e+02
886             	3.22019006e+02
887             	3.22019028e+02
888             	3.22019040e+02
889             	3.22019057e+02
890             	3.22019066e+02
891             	3.22019068e+02
892             	3.22019069e+02
893             	3.22019070e+02
894             	3.22019075e+02
895             	3.22019083e+02
896             	3.22019096e+02
897             	3.22019115e+02
898             	3.22019142e+02
899             	3.22019176e+02
900             	3.22019218e+02
901             	3.22019267e+02
902             	3.22019320e+02
903             	3.22019378e+02
904             	3.22019432e+02
905             	3.22019492e+02
906             	3.22019548e+02
907             	3.22019605e+02
908             	3.22019663e+02
909             	3.22019719e+02
910             	3.22019775e+02
911             	3.22019828e+02
912             	3.22019880e+02
913             	3.22019925e+02
914             	3.22019972e+02
915             	3.22020020e+02
916             	3.22020071e+02
917             	3.22020127e+02
918             	3.22020163e+02
919             	3.22020195e+02
920             	3.22020228e+02
921             	3.22020262e+02
922             	3.22020296e+02
923             	3.22020332e+02
924             	3.22020367e+02
925             	3.22020411e+02
926             	3.22020449e+02
927             	3.22020488e+02
928             	3.22020525e+02
929             	3.22020553e+02
930             	3.22020580e+02
931             	3.22020606e+02
932             	3.22020628e+02
933             	3.22020644e+02