# Region        : cellZone fluid
# Cells         : 5002
# Volume        : 4.64089676e+00
# Time          	volAverage(T)
1               	3.00000159e+02
2               	3.00000335e+02
3               	3.00001707e+02
4               	3.00003815e+02
5               	3.00006050e+02
6               	3.00008503e+02
7               	3.00011380e+02
8               	3.00014391e+02
9               	3.00018036e+02
10              	3.00022209e+02
11              	3.00027111e+02
12              	3.00031872e+02
13              	3.00036967e+02
14              	3.00042271e+02
15              	3.00048153e+02
16              	3.00056134e+02
17              	3.00065734e+02
18              	3.00074039e+02
19              	3.00080728e+02
20              	3.00088801e+02
21              	3.00097826e+02
22              	3.00104116e+02
23              	3.00111981e+02
24              	3.00118706e+02
25              	3.00125589e+02
26              	3.00132113e+02
27              	3.00140994e+02
28              	3.00148796e+02
29              	3.00156730e+02
30              	3.00164795e+02
31              	3.00176633e+02
32              	3.00186516e+02
33              	3.00194828e+02
34              	3.00204786e+02
35              	3.00214271e+02
36              	3.00223368e+02
37              	3.00232443e+02
38              	3.00241473e+02
39              	3.00251102e+02
40              	3.00259652e+02
41              	3.00269336e+02
42              	3.00277793e+02
43              	3.00288576e+02
44              	3.00299313e+02
45              	3.00308014e+02
46              	3.00317995e+02
47              	3.00328391e+02
48              	3.00338512e+02
49              	3.00347803e+02
50              	3.00355935e+02
51              	3.00364814e+02
52              	3.00373556e+02
53              	3.00382720e+02
54              	3.00392743e+02
55              	3.00402889e+02
56              	3.00414683e+02
57              	3.00425973e+02
58              	3.00436673e+02
59              	3.00446992e+02
60              	3.00454614e+02
61              	3.00463700e+02
62              	3.00474213e+02
63              	3.00482778e+02
64              	3.00491285e+02
65              	3.00499838e+02
66              	3.00508348e+02
67              	3.00516711e+02
68              	3.00527561e+02
69              	3.00534492e+02
70              	3.00542419e+02
71              	3.00552208e+02
72              	3.00562182e+02
73              	3.00572164e+02
74              	3.00582765e+02
75              	3.00594762e+02
76              	3.00605612e+02
77              	3.00614432e+02
78              	3.00624813e+02
79              	3.00634432e+02
80              	3.00643102e+02
81              	3.00650892e+02
82              	3.00659355e+02
83              	3.00668042e+02
84              	3.00675888e+02
85              	3.00683178e+02
86              	3.00692035e+02
87              	3.00701031e+02
88              	3.00706928e+02
89              	3.00714179e+02
90              	3.00721325e+02
91              	3.00728036e+02
92              	3.00734015e+02
93              	3.00740224e+02
94              	3.00747741e+02
95              	3.00753358e+02
96              	3.00759359e+02
97              	3.00768374e+02
98              	3.00775150e+02
99              	3.00779778e+02
100             	3.00786076e+02
101             	3.00792852e+02
102             	3.00799926e+02
103             	3.00804240e+02
104             	3.00808712e+02
105             	3.00814269e+02
106             	3.00819257e+02
107             	3.00823718e+02
108             	3.00828570e+02
109             	3.00834688e+02
110             	3.00840507e+02
111             	3.00845273e+02
112             	3.00850207e+02
113             	3.00854746e+02
114             	3.00858680e+02
115             	3.00862135e+02
116             	3.00865680e+02
117             	3.00869983e+02
118             	3.00873657e+02
119             	3.00877850e+02
120             	3.00883514e+02
121             	3.00889403e+02
122             	3.00894260e+02
123             	3.00898494e+02
124             	3.00901930e+02
125             	3.00905122e+02
126             	3.00908729e+02
127             	3.00911723e+02
128             	3.00916019e+02
129             	3.00919988e+02
130             	3.00923548e+02
131             	3.00926874e+02
132             	3.00931334e+02
133             	3.00936444e+02
134             	3.00941204e+02
135             	3.00943265e+02
136             	3.00947213e+02
137             	3.00950667e+02
138             	3.00953685e+02
139             	3.00957475e+02
140             	3.00961281e+02
141             	3.00964803e+02
142             	3.00968060e+02
143             	3.00970814e+02
144             	3.00974865e+02
145             	3.00975425e+02
146             	3.00976984e+02
147             	3.00978510e+02
148             	3.00979844e+02
149             	3.00981465e+02
150             	3.00982923e+02
151             	3.00985110e+02
152             	3.00987029e+02
153             	3.00989845e+02
154             	3.00991671e+02
155             	3.00994605e+02
156             	3.00997350e+02
157             	3.01000105e+02
158             	3.01002517e+02
159             	3.01004828e+02
160             	3.01007611e+02
161             	3.01010834e+02
162             	3.01013014e+02
163             	3.01014667e+02
164             	3.01017437e+02
165             	3.01020315e+02
166             	3.01023760e+02
167             	3.01025561e+02
168             	3.01027538e+02
169             	3.01029377e+02
170             	3.01031260e+02
171             	3.01031985e+02
172             	3.01032562e+02
173             	3.01033409e+02
174             	3.01035438e+02
175             	3.01035630e+02
176             	3.01036354e+02
177             	3.01038083e+02
178             	3.01039916e+02
179             	3.01041811e+02
180             	3.01043571e+02
181             	3.01045249e+02
182             	3.01047226e+02
183             	3.01049349e+02
184             	3.01051642e+02
185             	3.01054080e+02
186             	3.01054791e+02
187             	3.01058927e+02
188             	3.01061964e+02
189             	3.01063888e+02
190             	3.01065703e+02
191             	3.01067575e+02
192             	3.01069122e+02
193             	3.01072051e+02
194             	3.01072861e+02
195             	3.01073639e+02
196             	3.01074369e+02
197             	3.01075096e+02
198             	3.01075900e+02
199             	3.01076638e+02
200             	3.01077326e+02
201             	3.01078087e+02
202             	3.01078675e+02
203             	3.01079401e+02
204             	3.01080452e+02
205             	3.01081190e+02
206             	3.01082397e+02
207             	3.01083356e+02
208             	3.01084432e+02
209             	3.01085628e+02
210             	3.01086573e+02
211             	3.01087236e+02
212             	3.01087371e+02
213             	3.01087952e+02
214             	3.01088820e+02
215             	3.01089514e+02
216             	3.01090157e+02
217             	3.01092218e+02
218             	3.01091844e+02
219             	3.01092164e+02
220             	3.01092686e+02
221             	3.01094014e+02
222             	3.01094620e+02
223             	3.01095427e+02
224             	3.01096391e+02
225             	3.01096228e+02
226             	3.01097875e+02
227             	3.01098499e+02
228             	3.01099856e+02
229             	3.01100693e+02
230             	3.01101616e+02
231             	3.01102361e+02
232             	3.01103011e+02
233             	3.01103418e+02
234             	3.01103758e+02
235             	3.01104175e+02
236             	3.01105104e+02
237             	3.01105398e+02
238             	3.01106801e+02
239             	3.01107061e+02
240             	3.01107481e+02
241             	3.01108015e+02
242             	3.01108563e+02
243             	3.01109360e+02
244             	3.01110354e+02
245             	3.01111150e+02
246             	3.01111971e+02
247             	3.01112935e+02
248             	3.01113930e+02
249             	3.01114401e+02
250             	3.01114844e+02
251             	3.01115736e+02
252             	3.01116407e+02
253             	3.01116997e+02
254             	3.01117313e+02
255             	3.01118829e+02
256             	3.01119992e+02
257             	3.01120794e+02
258             	3.01121578e+02
259             	3.01122798e+02
260             	3.01123178e+02
261             	3.01123573e+02
262             	3.01123868e+02
263             	3.01124028e+02
264             	3.01124168e+02
265             	3.01125278e+02
266             	3.01125810e+02
267             	3.01126193e+02
268             	3.01126957e+02
269             	3.01128088e+02
270             	3.01128402e+02
271             	3.01129110e+02
272             	3.01129835e+02
273             	3.01130503e+02
274             	3.01130577e+02
275             	3.01131488e+02
276             	3.01131981e+02
277             	3.01132612e+02
278             	3.01132977e+02
279             	3.01133348e+02
280             	3.01133742e+02
281             	3.01133952e+02
282             	3.01134120e+02
283             	3.01134326e+02
284             	3.01134757e+02
285             	3.01134989e+02
286             	3.01134949e+02
287             	3.01134958e+02
288             	3.01135112e+02
289             	3.01135338e+02
290             	3.01135599e+02
291             	3.01136159e+02
292             	3.01136475e+02
293             	3.01136647e+02
294             	3.01137094e+02
295             	3.01137526e+02
296             	3.01137857e+02
297             	3.01138092e+02
298             	3.01138341e+02
299             	3.01138562e+02
300             	3.01139072e+02
301             	3.01139233e+02
302             	3.01139998e+02
303             	3.01140463e+02
304             	3.01140991e+02
305             	3.01141515e+02
306             	3.01142038e+02
307             	3.01142568e+02
308             	3.01143115e+02
309             	3.01143626e+02
310             	3.01144037e+02
311             	3.01144248e+02
312             	3.01144433e+02
313             	3.01144549e+02
314             	3.01145142e+02
315             	3.01144918e+02
316             	3.01144881e+02
317             	3.01145092e+02
318             	3.01145336e+02
319             	3.01145559e+02
320             	3.01145727e+02
321             	3.01145902e+02
322             	3.01146105e+02
323             	3.01146336e+02
324             	3.01146300e+02
325             	3.01146998e+02
326             	3.01147584e+02
327             	3.01148064e+02
328             	3.01148684e+02
329             	3.01149067e+02
330             	3.01149526e+02
331             	3.01149836e+02
332             	3.01150007e+02
333             	3.01150070e+02
334             	3.01150049e+02
335             	3.01149975e+02
336             	3.01149949e+02
337             	3.01149983e+02
338             	3.01150181e+02
339             	3.01150335e+02
340             	3.01150889e+02
341             	3.01150858e+02
342             	3.01151187e+02
343             	3.01151601e+02
344             	3.01152077e+02
345             	3.01152572e+02
346             	3.01153154e+02
347             	3.01153799e+02
348             	3.01154377e+02
349             	3.01154830e+02
350             	3.01154422e+02
351             	3.01155141e+02
352             	3.01155424e+02
353             	3.01155400e+02
354             	3.01155336e+02
355             	3.01155260e+02
356             	3.01155654e+02
357             	3.01155766e+02
358             	3.01156036e+02
359             	3.01156444e+02
360             	3.01156812e+02
361             	3.01156904e+02
362             	3.01157033e+02
363             	3.01157222e+02
364             	3.01157231e+02
365             	3.01157170e+02
366             	3.01157341e+02
367             	3.01157640e+02
368             	3.01157909e+02
369             	3.01158086e+02
370             	3.01158370e+02
371             	3.01158760e+02
372             	3.01158715e+02
373             	3.01159264e+02
374             	3.01159882e+02
375             	3.01160130e+02
376             	3.01160379e+02
377             	3.01160577e+02
378             	3.01160799e+02
379             	3.01160855e+02
380             	3.01160746e+02
381             	3.01160595e+02
382             	3.01160524e+02
383             	3.01160787e+02
384             	3.01160794e+02
385             	3.01160983e+02
386             	3.01161275e+02
387             	3.01161464e+02
388             	3.01161416e+02
389             	3.01161581e+02
390             	3.01161819e+02
391             	3.01161853e+02
392             	3.01162183e+02
393             	3.01162372e+02
394             	3.01162494e+02
395             	3.01162564e+02
396             	3.01162601e+02
397             	3.01162671e+02
398             	3.01162912e+02
399             	3.01163168e+02
400             	3.01163498e+02
401             	3.01163516e+02
402             	3.01163772e+02
403             	3.01163990e+02
404             	3.01164114e+02
405             	3.01164142e+02
406             	3.01164021e+02
407             	3.01164096e+02
408             	3.01164188e+02
409             	3.01164262e+02
410             	3.01164328e+02
411             	3.01164299e+02
412             	3.01164280e+02
413             	3.01164293e+02
414             	3.01164373e+02
415             	3.01164450e+02
416             	3.01164361e+02
417             	3.01164309e+02
418             	3.01164326e+02
419             	3.01164522e+02
420             	3.01164830e+02
421             	3.01164874e+02
422             	3.01165053e+02
423             	3.01165313e+02
424             	3.01165617e+02
425             	3.01165910e+02
426             	3.01166168e+02
427             	3.01166182e+02
428             	3.01165925e+02
429             	3.01166170e+02
430             	3.01166247e+02
431             	3.01166268e+02
432             	3.01166333e+02
433             	3.01166703e+02
434             	3.01166739e+02
435             	3.01166873e+02
436             	3.01167115e+02
437             	3.01167268e+02
438             	3.01167178e+02
439             	3.01167237e+02
440             	3.01167158e+02
441             	3.01167187e+02
442             	3.01167160e+02
443             	3.01167350e+02
444             	3.01167342e+02
445             	3.01167331e+02
446             	3.01167312e+02
447             	3.01167340e+02
448             	3.01167368e+02
449             	3.01167482e+02
450             	3.01167559e+02
451             	3.01167753e+02
452             	3.01167937e+02
453             	3.01167971e+02
454             	3.01168252e+02
455             	3.01168484e+02
456             	3.01168662e+02
457             	3.01168809e+02
458             	3.01168918e+02
459             	3.01169027e+02
460             	3.01169013e+02
461             	3.01169005e+02
462             	3.01168959e+02
463             	3.01168904e+02
464             	3.01168968e+02
465             	3.01169230e+02
466             	3.01169441e+02
467             	3.01169524e+02
468             	3.01169619e+02
469             	3.01169762e+02
470             	3.01169914e+02
471             	3.01169912e+02
472             	3.01169914e+02
473             	3.01169845e+02
474             	3.01169758e+02
475             	3.01169668e+02
476             	3.01169695e+02
477             	3.01169782e+02
478             	3.01169820e+02
479             	3.01169844e+02
480             	3.01169940e+02
481             	3.01170129e+02
482             	3.01170362e+02
483             	3.01170566e+02
484             	3.01170659e+02
485             	3.01170741e+02
486             	3.01170971e+02
487             	3.01171176e+02
488             	3.01171255e+02
489             	3.01171090e+02
490             	3.01171292e+02
491             	3.01171506e+02
492             	3.01171711e+02
493             	3.01171840e+02
494             	3.01171838e+02
495             	3.01171804e+02
496             	3.01171797e+02
497             	3.01171769e+02
498             	3.01171742e+02
499             	3.01171945e+02
500             	3.01171817e+02
501             	3.01171798e+02
502             	3.01171847e+02
503             	3.01171985e+02
504             	3.01172084e+02
505             	3.01172158e+02
506             	3.01172145e+02
507             	3.01172037e+02
508             	3.01172173e+02
509             	3.01172137e+02
510             	3.01172260e+02
511             	3.01172344e+02
512             	3.01172471e+02
513             	3.01172602e+02
514             	3.01172700e+02
515             	3.01172769e+02
516             	3.01172858e+02
517             	3.01172984e+02
518             	3.01173094e+02
519             	3.01173140e+02
520             	3.01173110e+02
521             	3.01173118e+02
522             	3.01173066e+02
523             	3.01173135e+02
524             	3.01173122e+02
525             	3.01173117e+02
526             	3.01173135e+02
527             	3.01173223e+02
528             	3.01173347e+02
529             	3.01173395e+02
530             	3.01173212e+02
531             	3.01173296e+02
532             	3.01173425e+02
533             	3.01173467e+02
534             	3.01173439e+02
535             	3.01173387e+02
536             	3.01173365e+02
537             	3.01173337e+02
538             	3.01173302e+02
539             	3.01173318e+02
540             	3.01173393e+02
541             	3.01173396e+02
542             	3.01173610e+02
543             	3.01173540e+02
544             	3.01173603e+02
545             	3.01173722e+02
546             	3.01173853e+02
547             	3.01173988e+02
548             	3.01174086e+02
549             	3.01174130e+02
550             	3.01174112e+02
551             	3.01174140e+02
552             	3.01174013e+02
553             	3.01174142e+02
554             	3.01174256e+02
555             	3.01174290e+02
556             	3.01174326e+02
557             	3.01174430e+02
558             	3.01174433e+02
559             	3.01174466e+02
560             	3.01174502e+02
561             	3.01174541e+02
562             	3.01174605e+02
563             	3.01174677e+02
564             	3.01174614e+02
565             	3.01174654e+02
566             	3.01174692e+02
567             	3.01174720e+02
568             	3.01174731e+02
569             	3.01174775e+02
570             	3.01174774e+02
571             	3.01174890e+02
572             	3.01174852e+02
573             	3.01174939e+02
574             	3.01174988e+02
575             	3.01175042e+02
576             	3.01175068e+02
577             	3.01175070e+02
578             	3.01175069e+02
579             	3.01175089e+02
580             	3.01175124e+02
581             	3.01175168e+02
582             	3.01175128e+02
583             	3.01175106e+02
584             	3.01175074e+02
585             	3.01175030e+02
586             	3.01175096e+02
587             	3.01175082e+02
588             	3.01175092e+02
589             	3.01175136e+02
590             	3.01175215e+02
591             	3.01175295e+02
592             	3.01175297e+02
593             	3.01175340e+02
594             	3.01175387e+02
595             	3.01175420e+02
596             	3.01175437e+02
597             	3.01175437e+02
598             	3.01175412e+02
599             	3.01175393e+02
600             	3.01175425e+02
601             	3.01175477e+02
602             	3.01175513e+02
603             	3.01175563e+02
604             	3.01175469e+02
605             	3.01175577e+02
606             	3.01175665e+02
607             	3.01175737e+02
608             	3.01175771e+02
609             	3.01175776e+02
610             	3.01175792e+02
611             	3.01175899e+02
612             	3.01175772e+02
613             	3.01175796e+02
614             	3.01175792e+02
615             	3.01175794e+02
616             	3.01175770e+02
617             	3.01175751e+02
618             	3.01175820e+02
619             	3.01175873e+02
620             	3.01175874e+02
621             	3.01175873e+02
622             	3.01175926e+02
623             	3.01175930e+02
624             	3.01175935e+02
625             	3.01175983e+02
626             	3.01176048e+02
627             	3.01176015e+02
628             	3.01175994e+02
629             	3.01175964e+02
630             	3.01175960e+02
631             	3.01175959e+02
632             	3.01176047e+02
633             	3.01176134e+02
634             	3.01176077e+02
635             	3.01176111e+02
636             	3.01176184e+02
637             	3.01176262e+02
638             	3.01176321e+02
639             	3.01176380e+02
640             	3.01176440e+02
641             	3.01176481e+02
642             	3.01176298e+02
643             	3.01176408e+02
644             	3.01176432e+02
645             	3.01176399e+02
646             	3.01176343e+02
647             	3.01176293e+02
648             	3.01176338e+02
649             	3.01176338e+02
650             	3.01176359e+02
651             	3.01176390e+02
652             	3.01176442e+02
653             	3.01176447e+02
654             	3.01176417e+02
655             	3.01176468e+02
656             	3.01176438e+02
657             	3.01176413e+02
658             	3.01176397e+02
659             	3.01176380e+02
660             	3.01176366e+02
661             	3.01176347e+02
662             	3.01176350e+02
663             	3.01176365e+02
664             	3.01176392e+02
665             	3.01176440e+02
666             	3.01176508e+02
667             	3.01176523e+02
668             	3.01176604e+02
669             	3.01176561e+02
670             	3.01176626e+02
671             	3.01176641e+02
672             	3.01176620e+02
673             	3.01176584e+02
674             	3.01176563e+02
675             	3.01176532e+02
676             	3.01176507e+02
677             	3.01176488e+02
678             	3.01176469e+02
679             	3.01176464e+02
680             	3.01176443e+02
681             	3.01176464e+02
682             	3.01176551e+02
683             	3.01176505e+02
684             	3.01176525e+02
685             	3.01176566e+02
686             	3.01176619e+02
687             	3.01176675e+02
688             	3.01176730e+02
689             	3.01176785e+02
690             	3.01176824e+02
691             	3.01176761e+02
692             	3.01176829e+02
693             	3.01176820e+02
694             	3.01176716e+02
695             	3.01176818e+02
696             	3.01176847e+02
697             	3.01176841e+02
698             	3.01176827e+02
699             	3.01176901e+02
700             	3.01176834e+02
701             	3.01176900e+02
702             	3.01176929e+02
703             	3.01176973e+02
704             	3.01176890e+02
705             	3.01176887e+02
706             	3.01176951e+02
707             	3.01176926e+02
708             	3.01176720e+02
709             	3.01176907e+02
710             	3.01176946e+02
711             	3.01176979e+02
712             	3.01177074e+02
713             	3.01177140e+02
714             	3.01177189e+02
715             	3.01177237e+02
716             	3.01177231e+02
717             	3.01177220e+02
718             	3.01177322e+02
719             	3.01177234e+02
720             	3.01177203e+02
721             	3.01177125e+02
722             	3.01177069e+02
723             	3.01177045e+02
724             	3.01177008e+02
725             	3.01176976e+02
726             	3.01176953e+02
727             	3.01176955e+02
728             	3.01176994e+02
729             	3.01177064e+02
730             	3.01177153e+02
731             	3.01177218e+02
732             	3.01177248e+02
733             	3.01177194e+02
734             	3.01177319e+02
735             	3.01177323e+02
736             	3.01177372e+02
737             	3.01177381e+02
738             	3.01177367e+02
739             	3.01177339e+02
740             	3.01177303e+02
741             	3.01177255e+02
742             	3.01177357e+02
743             	3.01177253e+02
744             	3.01177201e+02
745             	3.01177191e+02
746             	3.01177198e+02
747             	3.01177197e+02
748             	3.01177222e+02
749             	3.01177217e+02
750             	3.01177212e+02
751             	3.01177227e+02
752             	3.01177243e+02
753             	3.01177245e+02
754             	3.01177237e+02
755             	3.01177256e+02
756             	3.01177287e+02
757             	3.01177280e+02
758             	3.01177278e+02
759             	3.01177189e+02
760             	3.01177282e+02
761             	3.01177317e+02
762             	3.01177314e+02
763             	3.01177344e+02
764             	3.01177342e+02
765             	3.01177358e+02
766             	3.01177376e+02
767             	3.01177487e+02
768             	3.01177404e+02
769             	3.01177368e+02
770             	3.01177341e+02
771             	3.01177321e+02
772             	3.01177305e+02
773             	3.01177296e+02
774             	3.01177293e+02
775             	3.01177306e+02
776             	3.01177334e+02
777             	3.01177354e+02
778             	3.01177368e+02
779             	3.01177284e+02
780             	3.01177333e+02
781             	3.01177350e+02
782             	3.01177345e+02
783             	3.01177330e+02
784             	3.01177314e+02
785             	3.01177306e+02
786             	3.01177291e+02
787             	3.01177281e+02
788             	3.01177262e+02
789             	3.01177248e+02
790             	3.01177242e+02
791             	3.01177238e+02
792             	3.01177248e+02
793             	3.01177244e+02
794             	3.01177339e+02
795             	3.01177281e+02
796             	3.01177269e+02
797             	3.01177287e+02
798             	3.01177308e+02
799             	3.01177329e+02
800             	3.01177263e+02
801             	3.01177318e+02
802             	3.01177338e+02
803             	3.01177344e+02
804             	3.01177349e+02
805             	3.01177353e+02
806             	3.01177365e+02
807             	3.01177333e+02
808             	3.01177372e+02
809             	3.01177388e+02
810             	3.01177395e+02
811             	3.01177415e+02
812             	3.01177394e+02
813             	3.01177400e+02
814             	3.01177438e+02
815             	3.01177402e+02
816             	3.01177395e+02
817             	3.01177381e+02
818             	3.01177371e+02
819             	3.01177378e+02
820             	3.01177369e+02
821             	3.01177372e+02
822             	3.01177372e+02
823             	3.01177375e+02
824             	3.01177369e+02
825             	3.01177343e+02
826             	3.01177373e+02
827             	3.01177386e+02
828             	3.01177404e+02
829             	3.01177432e+02
830             	3.01177458e+02
831             	3.01177482e+02
832             	3.01177503e+02
833             	3.01177509e+02
834             	3.01177533e+02
835             	3.01177531e+02
836             	3.01177530e+02
837             	3.01177526e+02
838             	3.01177514e+02
839             	3.01177501e+02
840             	3.01177487e+02
841             	3.01177470e+02
842             	3.01177459e+02
843             	3.01177466e+02
844             	3.01177481e+02
845             	3.01177487e+02
846             	3.01177506e+02
847             	3.01177515e+02
848             	3.01177525e+02
849             	3.01177546e+02
850             	3.01177571e+02
851             	3.01177596e+02
852             	3.01177620e+02
853             	3.01177640e+02
854             	3.01177645e+02
855             	3.01177664e+02
856             	3.01177675e+02
857             	3.01177684e+02
858             	3.01177683e+02
859             	3.01177689e+02
860             	3.01177690e+02
861             	3.01177672e+02
862             	3.01177667e+02
863             	3.01177680e+02
864             	3.01177686e+02
865             	3.01177691e+02
866             	3.01177697e+02
867             	3.01177701e+02
868             	3.01177701e+02
869             	3.01177705e+02
870             	3.01177709e+02
871             	3.01177709e+02
872             	3.01177705e+02
873             	3.01177703e+02
874             	3.01177716e+02
875             	3.01177695e+02
876             	3.01177684e+02
877             	3.01177699e+02
878             	3.01177707e+02
879             	3.01177704e+02
880             	3.01177711e+02
881             	3.01177713e+02
882             	3.01177715e+02
883             	3.01177729e+02
884             	3.01177723e+02
885             	3.01177740e+02
886             	3.01177748e+02
887             	3.01177760e+02
888             	3.01177763e+02
889             	3.01177767e+02
890             	3.01177753e+02
891             	3.01177774e+02
892             	3.01177787e+02
893             	3.01177795e+02
894             	3.01177798e+02
895             	3.01177793e+02
896             	3.01177809e+02
897             	3.01177784e+02
898             	3.01177776e+02
899             	3.01177758e+02
900             	3.01177750e+02
901             	3.01177739e+02
902             	3.01177734e+02
903             	3.01177728e+02
904             	3.01177728e+02
905             	3.01177734e+02
906             	3.01177741e+02
907             	3.01177739e+02
908             	3.01177751e+02
909             	3.01177757e+02
910             	3.01177737e+02
911             	3.01177749e+02
912             	3.01177755e+02
913             	3.01177750e+02
914             	3.01177742e+02
915             	3.01177738e+02
916             	3.01177729e+02
917             	3.01177740e+02
918             	3.01177744e+02
919             	3.01177736e+02
920             	3.01177730e+02
921             	3.01177750e+02
922             	3.01177741e+02
923             	3.01177735e+02
924             	3.01177737e+02
925             	3.01177741e+02
926             	3.01177744e+02
927             	3.01177747e+02
928             	3.01177751e+02
929             	3.01177754e+02
930             	3.01177756e+02
931             	3.01177748e+02
932             	3.01177744e+02
933             	3.01177753e+02