# Region        : cellZone component_0
# Cells         : 168
# Volume        : 2.93847907e-01
# Time          	volAverage(T)
1               	3.00155110e+02
2               	3.00308446e+02
3               	3.00452327e+02
4               	3.00589362e+02
5               	3.00722578e+02
6               	3.00852573e+02
7               	3.00980041e+02
8               	3.01105339e+02
9               	3.01229570e+02
10              	3.01352607e+02
11              	3.01472843e+02
12              	3.01591376e+02
13              	3.01707261e+02
14              	3.01820770e+02
15              	3.01930780e+02
16              	3.02041843e+02
17              	3.02150036e+02
18              	3.02255746e+02
19              	3.02359254e+02
20              	3.02460384e+02
21              	3.02559260e+02
22              	3.02656450e+02
23              	3.02752926e+02
24              	3.02851812e+02
25              	3.02945676e+02
26              	3.03033446e+02
27              	3.03117173e+02
28              	3.03196549e+02
29              	3.03270727e+02
30              	3.03343498e+02
31              	3.03419920e+02
32              	3.03498333e+02
33              	3.03576181e+02
34              	3.03653541e+02
35              	3.03732174e+02
36              	3.03807946e+02
37              	3.03887063e+02
38              	3.03967081e+02
39              	3.04043336e+02
40              	3.04117353e+02
41              	3.04189493e+02
42              	3.04260656e+02
43              	3.04330360e+02
44              	3.04395350e+02
45              	3.04456275e+02
46              	3.04514551e+02
47              	3.04572298e+02
48              	3.04630150e+02
49              	3.04686401e+02
50              	3.04743170e+02
51              	3.04800185e+02
52              	3.04857162e+02
53              	3.04913720e+02
54              	3.04972386e+02
55              	3.05034034e+02
56              	3.05097799e+02
57              	3.05162909e+02
58              	3.05227625e+02
59              	3.05295455e+02
60              	3.05360806e+02
61              	3.05427622e+02
62              	3.05493147e+02
63              	3.05556397e+02
64              	3.05614535e+02
65              	3.05664470e+02
66              	3.05706576e+02
67              	3.05748230e+02
68              	3.05792509e+02
69              	3.05838496e+02
70              	3.05886345e+02
71              	3.05938181e+02
72              	3.05988621e+02
73              	3.06044500e+02
74              	3.06097554e+02
75              	3.06151529e+02
76              	3.06205647e+02
77              	3.06258416e+02
78              	3.06309504e+02
79              	3.06359390e+02
80              	3.06407448e+02
81              	3.06453436e+02
82              	3.06495935e+02
83              	3.06537761e+02
84              	3.06579363e+02
85              	3.06621162e+02
86              	3.06664479e+02
87              	3.06711021e+02
88              	3.06759864e+02
89              	3.06810505e+02
90              	3.06862293e+02
91              	3.06910616e+02
92              	3.06958171e+02
93              	3.07007979e+02
94              	3.07056394e+02
95              	3.07102226e+02
96              	3.07145408e+02
97              	3.07185883e+02
98              	3.07225070e+02
99              	3.07261671e+02
100             	3.07296764e+02
101             	3.07326463e+02
102             	3.07360380e+02
103             	3.07396253e+02
104             	3.07435655e+02
105             	3.07476456e+02
106             	3.07517599e+02
107             	3.07557416e+02
108             	3.07596429e+02
109             	3.07636641e+02
110             	3.07676645e+02
111             	3.07713589e+02
112             	3.07744192e+02
113             	3.07776213e+02
114             	3.07803325e+02
115             	3.07831805e+02
116             	3.07861127e+02
117             	3.07891642e+02
118             	3.07923219e+02
119             	3.07954053e+02
120             	3.07983391e+02
121             	3.08015306e+02
122             	3.08039616e+02
123             	3.08054858e+02
124             	3.08063832e+02
125             	3.08075578e+02
126             	3.08097161e+02
127             	3.08121680e+02
128             	3.08150866e+02
129             	3.08179225e+02
130             	3.08209635e+02
131             	3.08246672e+02
132             	3.08284658e+02
133             	3.08319055e+02
134             	3.08343752e+02
135             	3.08359419e+02
136             	3.08371016e+02
137             	3.08378648e+02
138             	3.08386035e+02
139             	3.08401406e+02
140             	3.08419147e+02
141             	3.08439805e+02
142             	3.08461900e+02
143             	3.08482779e+02
144             	3.08507810e+02
145             	3.08529776e+02
146             	3.08555374e+02
147             	3.08578335e+02
148             	3.08599682e+02
149             	3.08619704e+02
150             	3.08638420e+02
151             	3.08655718e+02
152             	3.08675908e+02
153             	3.08695868e+02
154             	3.08714522e+02
155             	3.08734227e+02
156             	3.08754091e+02
157             	3.08775733e+02
158             	3.08794764e+02
159             	3.08815858e+02
160             	3.08839150e+02
161             	3.08850382e+02
162             	3.08853081e+02
163             	3.08853744e+02
164             	3.08860910e+02
165             	3.08873300e+02
166             	3.08889348e+02
167             	3.08909026e+02
168             	3.08930342e+02
169             	3.08955147e+02
170             	3.08980543e+02
171             	3.09006332e+02
172             	3.09028381e+02
173             	3.09056605e+02
174             	3.09077160e+02
175             	3.09091967e+02
176             	3.09103319e+02
177             	3.09112754e+02
178             	3.09120810e+02
179             	3.09125762e+02
180             	3.09134639e+02
181             	3.09146594e+02
182             	3.09159847e+02
183             	3.09173211e+02
184             	3.09186657e+02
185             	3.09202546e+02
186             	3.09221082e+02
187             	3.09238094e+02
188             	3.09250008e+02
189             	3.09257918e+02
190             	3.09268449e+02
191             	3.09281874e+02
192             	3.09295449e+02
193             	3.09311699e+02
194             	3.09326493e+02
195             	3.09345822e+02
196             	3.09364912e+02
197             	3.09383533e+02
198             	3.09401538e+02
199             	3.09418764e+02
200             	3.09433364e+02
201             	3.09448014e+02
202             	3.09461436e+02
203             	3.09471110e+02
204             	3.09478409e+02
205             	3.09483890e+02
206             	3.09488405e+02
207             	3.09493202e+02
208             	3.09500104e+02
209             	3.09509510e+02
210             	3.09521612e+02
211             	3.09535563e+02
212             	3.09550225e+02
213             	3.09565112e+02
214             	3.09577630e+02
215             	3.09594922e+02
216             	3.09609733e+02
217             	3.09621538e+02
218             	3.09628348e+02
219             	3.09634078e+02
220             	3.09641318e+02
221             	3.09650169e+02
222             	3.09659792e+02
223             	3.09670206e+02
224             	3.09679127e+02
225             	3.09691085e+02
226             	3.09702417e+02
227             	3.09713051e+02
228             	3.09722542e+02
229             	3.09730696e+02
230             	3.09738175e+02
231             	3.09746103e+02
232             	3.09755467e+02
233             	3.09765175e+02
234             	3.09776573e+02
235             	3.09786867e+02
236             	3.09798054e+02
237             	3.09809281e+02
238             	3.09821828e+02
239             	3.09832822e+02
240             	3.09842830e+02
241             	3.09852974e+02
242             	3.09861885e+02
243             	3.09868506e+02
244             	3.09873963e+02
245             	3.09878379e+02
246             	3.09881023e+02
247             	3.09883407e+02
248             	3.09886375e+02
249             	3.09889459e+02
250             	3.09891145e+02
251             	3.09896072e+02
252             	3.09903027e+02
253             	3.09911142e+02
254             	3.09919444e+02
255             	3.09929766e+02
256             	3.09938780e+02
257             	3.09948638e+02
258             	3.09957724e+02
259             	3.09965741e+02
260             	3.09972871e+02
261             	3.09979370e+02
262             	3.09985192e+02
263             	3.09990617e+02
264             	3.09995606e+02
265             	3.10000120e+02
266             	3.10004419e+02
267             	3.10008512e+02
268             	3.10012475e+02
269             	3.10016043e+02
270             	3.10020473e+02
271             	3.10024743e+02
272             	3.10030995e+02
273             	3.10036969e+02
274             	3.10043742e+02
275             	3.10051161e+02
276             	3.10059174e+02
277             	3.10066441e+02
278             	3.10073143e+02
279             	3.10078684e+02
280             	3.10083045e+02
281             	3.10086321e+02
282             	3.10088929e+02
283             	3.10091183e+02
284             	3.10092079e+02
285             	3.10092125e+02
286             	3.10092217e+02
287             	3.10091965e+02
288             	3.10094232e+02
289             	3.10098365e+02
290             	3.10102968e+02
291             	3.10108800e+02
292             	3.10114969e+02
293             	3.10120840e+02
294             	3.10126655e+02
295             	3.10132846e+02
296             	3.10138935e+02
297             	3.10144974e+02
298             	3.10150805e+02
299             	3.10156533e+02
300             	3.10162199e+02
301             	3.10167557e+02
302             	3.10172588e+02
303             	3.10177042e+02
304             	3.10181192e+02
305             	3.10185028e+02
306             	3.10188604e+02
307             	3.10191286e+02
308             	3.10193375e+02
309             	3.10195449e+02
310             	3.10197670e+02
311             	3.10199745e+02
312             	3.10201819e+02
313             	3.10204356e+02
314             	3.10207718e+02
315             	3.10211412e+02
316             	3.10216547e+02
317             	3.10221162e+02
318             	3.10226632e+02
319             	3.10232584e+02
320             	3.10236688e+02
321             	3.10243002e+02
322             	3.10248894e+02
323             	3.10253494e+02
324             	3.10256839e+02
325             	3.10259133e+02
326             	3.10260591e+02
327             	3.10261140e+02
328             	3.10261495e+02
329             	3.10261721e+02
330             	3.10261655e+02
331             	3.10261419e+02
332             	3.10263214e+02
333             	3.10266107e+02
334             	3.10269622e+02
335             	3.10273706e+02
336             	3.10277764e+02
337             	3.10282791e+02
338             	3.10286853e+02
339             	3.10290498e+02
340             	3.10293718e+02
341             	3.10296652e+02
342             	3.10298985e+02
343             	3.10300980e+02
344             	3.10302750e+02
345             	3.10304463e+02
346             	3.10306084e+02
347             	3.10307593e+02
348             	3.10308847e+02
349             	3.10309980e+02
350             	3.10311500e+02
351             	3.10313280e+02
352             	3.10315194e+02
353             	3.10317247e+02
354             	3.10319105e+02
355             	3.10320969e+02
356             	3.10321946e+02
357             	3.10323153e+02
358             	3.10324501e+02
359             	3.10325612e+02
360             	3.10326623e+02
361             	3.10328006e+02
362             	3.10329656e+02
363             	3.10331477e+02
364             	3.10333609e+02
365             	3.10336155e+02
366             	3.10338759e+02
367             	3.10341002e+02
368             	3.10343218e+02
369             	3.10345220e+02
370             	3.10346744e+02
371             	3.10347817e+02
372             	3.10348394e+02
373             	3.10349315e+02
374             	3.10350223e+02
375             	3.10351555e+02
376             	3.10353289e+02
377             	3.10355409e+02
378             	3.10357902e+02
379             	3.10360631e+02
380             	3.10363415e+02
381             	3.10366140e+02
382             	3.10368808e+02
383             	3.10371284e+02
384             	3.10373638e+02
385             	3.10375884e+02
386             	3.10378168e+02
387             	3.10380416e+02
388             	3.10382700e+02
389             	3.10384865e+02
390             	3.10386807e+02
391             	3.10388523e+02
392             	3.10389096e+02
393             	3.10389279e+02
394             	3.10389027e+02
395             	3.10388213e+02
396             	3.10387577e+02
397             	3.10387569e+02
398             	3.10388465e+02
399             	3.10389959e+02
400             	3.10392156e+02
401             	3.10394943e+02
402             	3.10397795e+02
403             	3.10400483e+02
404             	3.10401278e+02
405             	3.10403213e+02
406             	3.10404859e+02
407             	3.10405337e+02
408             	3.10404720e+02
409             	3.10404216e+02
410             	3.10404174e+02
411             	3.10404659e+02
412             	3.10405561e+02
413             	3.10406940e+02
414             	3.10408724e+02
415             	3.10410909e+02
416             	3.10413357e+02
417             	3.10415267e+02
418             	3.10416735e+02
419             	3.10417961e+02
420             	3.10418623e+02
421             	3.10418574e+02
422             	3.10418135e+02
423             	3.10417773e+02
424             	3.10417467e+02
425             	3.10417091e+02
426             	3.10417477e+02
427             	3.10418403e+02
428             	3.10419665e+02
429             	3.10421302e+02
430             	3.10423361e+02
431             	3.10425428e+02
432             	3.10427392e+02
433             	3.10429340e+02
434             	3.10431291e+02
435             	3.10433203e+02
436             	3.10435009e+02
437             	3.10436470e+02
438             	3.10437616e+02
439             	3.10438263e+02
440             	3.10438594e+02
441             	3.10438774e+02
442             	3.10438862e+02
443             	3.10438745e+02
444             	3.10438925e+02
445             	3.10439281e+02
446             	3.10439763e+02
447             	3.10440313e+02
448             	3.10441019e+02
449             	3.10441946e+02
450             	3.10443037e+02
451             	3.10444178e+02
452             	3.10445254e+02
453             	3.10446296e+02
454             	3.10447150e+02
455             	3.10447704e+02
456             	3.10447986e+02
457             	3.10448066e+02
458             	3.10448017e+02
459             	3.10447838e+02
460             	3.10447572e+02
461             	3.10447613e+02
462             	3.10447962e+02
463             	3.10448425e+02
464             	3.10449137e+02
465             	3.10450128e+02
466             	3.10451307e+02
467             	3.10452555e+02
468             	3.10453829e+02
469             	3.10455071e+02
470             	3.10456304e+02
471             	3.10457403e+02
472             	3.10458355e+02
473             	3.10458958e+02
474             	3.10459247e+02
475             	3.10459230e+02
476             	3.10458931e+02
477             	3.10458445e+02
478             	3.10457884e+02
479             	3.10457312e+02
480             	3.10456826e+02
481             	3.10456482e+02
482             	3.10456190e+02
483             	3.10456276e+02
484             	3.10456627e+02
485             	3.10457265e+02
486             	3.10458172e+02
487             	3.10459258e+02
488             	3.10460522e+02
489             	3.10461850e+02
490             	3.10463083e+02
491             	3.10463887e+02
492             	3.10464136e+02
493             	3.10463945e+02
494             	3.10463077e+02
495             	3.10462062e+02
496             	3.10461367e+02
497             	3.10460789e+02
498             	3.10460337e+02
499             	3.10460042e+02
500             	3.10459937e+02
501             	3.10460066e+02
502             	3.10460508e+02
503             	3.10461196e+02
504             	3.10462051e+02
505             	3.10462978e+02
506             	3.10463924e+02
507             	3.10464888e+02
508             	3.10465962e+02
509             	3.10466964e+02
510             	3.10467829e+02
511             	3.10468509e+02
512             	3.10468931e+02
513             	3.10469092e+02
514             	3.10469020e+02
515             	3.10468802e+02
516             	3.10468414e+02
517             	3.10467838e+02
518             	3.10467165e+02
519             	3.10466515e+02
520             	3.10465828e+02
521             	3.10465256e+02
522             	3.10464808e+02
523             	3.10464588e+02
524             	3.10464638e+02
525             	3.10464825e+02
526             	3.10465306e+02
527             	3.10466049e+02
528             	3.10466976e+02
529             	3.10468078e+02
530             	3.10469252e+02
531             	3.10470333e+02
532             	3.10471306e+02
533             	3.10472051e+02
534             	3.10472557e+02
535             	3.10472759e+02
536             	3.10472691e+02
537             	3.10472478e+02
538             	3.10472192e+02
539             	3.10471883e+02
540             	3.10471531e+02
541             	3.10471267e+02
542             	3.10471119e+02
543             	3.10471152e+02
544             	3.10471353e+02
545             	3.10471669e+02
546             	3.10472083e+02
547             	3.10472622e+02
548             	3.10473153e+02
549             	3.10473627e+02
550             	3.10473932e+02
551             	3.10474088e+02
552             	3.10474108e+02
553             	3.10473985e+02
554             	3.10473764e+02
555             	3.10473507e+02
556             	3.10473190e+02
557             	3.10473070e+02
558             	3.10473086e+02
559             	3.10473222e+02
560             	3.10473492e+02
561             	3.10473910e+02
562             	3.10474400e+02
563             	3.10474917e+02
564             	3.10475301e+02
565             	3.10475508e+02
566             	3.10475673e+02
567             	3.10475791e+02
568             	3.10475821e+02
569             	3.10475771e+02
570             	3.10475720e+02
571             	3.10475726e+02
572             	3.10475760e+02
573             	3.10475846e+02
574             	3.10476035e+02
575             	3.10476341e+02
576             	3.10476699e+02
577             	3.10477126e+02
578             	3.10477597e+02
579             	3.10477965e+02
580             	3.10478243e+02
581             	3.10478440e+02
582             	3.10478531e+02
583             	3.10478452e+02
584             	3.10478212e+02
585             	3.10477885e+02
586             	3.10477672e+02
587             	3.10477512e+02
588             	3.10477394e+02
589             	3.10477397e+02
590             	3.10477520e+02
591             	3.10477749e+02
592             	3.10478026e+02
593             	3.10478373e+02
594             	3.10478727e+02
595             	3.10479009e+02
596             	3.10479151e+02
597             	3.10479119e+02
598             	3.10478964e+02
599             	3.10478833e+02
600             	3.10478733e+02
601             	3.10478667e+02
602             	3.10478667e+02
603             	3.10478761e+02
604             	3.10478957e+02
605             	3.10479236e+02
606             	3.10479504e+02
607             	3.10479668e+02
608             	3.10479799e+02
609             	3.10479898e+02
610             	3.10479907e+02
611             	3.10479788e+02
612             	3.10479603e+02
613             	3.10479437e+02
614             	3.10479256e+02
615             	3.10479064e+02
616             	3.10478928e+02
617             	3.10478869e+02
618             	3.10478900e+02
619             	3.10478991e+02
620             	3.10479079e+02
621             	3.10479171e+02
622             	3.10479265e+02
623             	3.10479377e+02
624             	3.10479367e+02
625             	3.10479267e+02
626             	3.10479116e+02
627             	3.10478958e+02
628             	3.10478753e+02
629             	3.10478519e+02
630             	3.10478322e+02
631             	3.10478212e+02
632             	3.10478216e+02
633             	3.10478260e+02
634             	3.10478345e+02
635             	3.10478481e+02
636             	3.10478732e+02
637             	3.10479059e+02
638             	3.10479318e+02
639             	3.10479569e+02
640             	3.10479839e+02
641             	3.10480064e+02
642             	3.10480312e+02
643             	3.10480557e+02
644             	3.10480769e+02
645             	3.10480966e+02
646             	3.10481178e+02
647             	3.10481393e+02
648             	3.10481608e+02
649             	3.10481824e+02
650             	3.10482044e+02
651             	3.10482256e+02
652             	3.10482449e+02
653             	3.10482626e+02
654             	3.10482788e+02
655             	3.10482900e+02
656             	3.10482937e+02
657             	3.10482926e+02
658             	3.10482872e+02
659             	3.10482769e+02
660             	3.10482622e+02
661             	3.10482439e+02
662             	3.10482231e+02
663             	3.10482010e+02
664             	3.10481786e+02
665             	3.10481572e+02
666             	3.10481373e+02
667             	3.10481223e+02
668             	3.10481124e+02
669             	3.10481027e+02
670             	3.10480952e+02
671             	3.10480908e+02
672             	3.10480893e+02
673             	3.10480891e+02
674             	3.10480870e+02
675             	3.10480850e+02
676             	3.10480828e+02
677             	3.10480792e+02
678             	3.10480740e+02
679             	3.10480689e+02
680             	3.10480665e+02
681             	3.10480680e+02
682             	3.10480749e+02
683             	3.10480872e+02
684             	3.10481043e+02
685             	3.10481259e+02
686             	3.10481521e+02
687             	3.10481800e+02
688             	3.10482020e+02
689             	3.10482223e+02
690             	3.10482422e+02
691             	3.10482601e+02
692             	3.10482741e+02
693             	3.10482833e+02
694             	3.10482882e+02
695             	3.10482896e+02
696             	3.10482891e+02
697             	3.10482878e+02
698             	3.10482850e+02
699             	3.10482806e+02
700             	3.10482758e+02
701             	3.10482715e+02
702             	3.10482685e+02
703             	3.10482659e+02
704             	3.10482629e+02
705             	3.10482577e+02
706             	3.10482525e+02
707             	3.10482474e+02
708             	3.10482419e+02
709             	3.10482363e+02
710             	3.10482309e+02
711             	3.10482256e+02
712             	3.10482207e+02
713             	3.10482162e+02
714             	3.10482154e+02
715             	3.10482165e+02
716             	3.10482182e+02
717             	3.10482203e+02
718             	3.10482219e+02
719             	3.10482265e+02
720             	3.10482325e+02
721             	3.10482387e+02
722             	3.10482454e+02
723             	3.10482528e+02
724             	3.10482605e+02
725             	3.10482667e+02
726             	3.10482713e+02
727             	3.10482736e+02
728             	3.10482733e+02
729             	3.10482704e+02
730             	3.10482654e+02
731             	3.10482586e+02
732             	3.10482499e+02
733             	3.10482403e+02
734             	3.10482303e+02
735             	3.10482202e+02
736             	3.10482091e+02
737             	3.10481962e+02
738             	3.10481834e+02
739             	3.10481705e+02
740             	3.10481570e+02
741             	3.10481429e+02
742             	3.10481281e+02
743             	3.10481134e+02
744             	3.10480995e+02
745             	3.10480866e+02
746             	3.10480751e+02
747             	3.10480654e+02
748             	3.10480583e+02
749             	3.10480540e+02
750             	3.10480515e+02
751             	3.10480543e+02
752             	3.10480633e+02
753             	3.10480761e+02
754             	3.10480920e+02
755             	3.10481134e+02
756             	3.10481294e+02
757             	3.10481431e+02
758             	3.10481559e+02
759             	3.10481658e+02
760             	3.10481753e+02
761             	3.10481841e+02
762             	3.10481923e+02
763             	3.10481998e+02
764             	3.10482057e+02
765             	3.10482105e+02
766             	3.10482160e+02
767             	3.10482241e+02
768             	3.10482356e+02
769             	3.10482501e+02
770             	3.10482646e+02
771             	3.10482759e+02
772             	3.10482843e+02
773             	3.10482918e+02
774             	3.10482981e+02
775             	3.10483023e+02
776             	3.10483036e+02
777             	3.10483021e+02
778             	3.10482982e+02
779             	3.10482925e+02
780             	3.10482852e+02
781             	3.10482769e+02
782             	3.10482668e+02
783             	3.10482550e+02
784             	3.10482441e+02
785             	3.10482344e+02
786             	3.10482269e+02
787             	3.10482206e+02
788             	3.10482156e+02
789             	3.10482131e+02
790             	3.10482152e+02
791             	3.10482209e+02
792             	3.10482299e+02
793             	3.10482421e+02
794             	3.10482571e+02
795             	3.10482742e+02
796             	3.10482926e+02
797             	3.10483121e+02
798             	3.10483319e+02
799             	3.10483513e+02
800             	3.10483698e+02
801             	3.10483868e+02
802             	3.10484018e+02
803             	3.10484146e+02
804             	3.10484256e+02
805             	3.10484335e+02
806             	3.10484363e+02
807             	3.10484350e+02
808             	3.10484298e+02
809             	3.10484212e+02
810             	3.10484127e+02
811             	3.10484038e+02
812             	3.10483935e+02
813             	3.10483838e+02
814             	3.10483729e+02
815             	3.10483616e+02
816             	3.10483512e+02
817             	3.10483429e+02
818             	3.10483369e+02
819             	3.10483325e+02
820             	3.10483291e+02
821             	3.10483243e+02
822             	3.10483250e+02
823             	3.10483297e+02
824             	3.10483387e+02
825             	3.10483431e+02
826             	3.10483480e+02
827             	3.10483502e+02
828             	3.10483508e+02
829             	3.10483497e+02
830             	3.10483464e+02
831             	3.10483398e+02
832             	3.10483306e+02
833             	3.10483186e+02
834             	3.10483061e+02
835             	3.10482937e+02
836             	3.10482821e+02
837             	3.10482731e+02
838             	3.10482647e+02
839             	3.10482581e+02
840             	3.10482521e+02
841             	3.10482472e+02
842             	3.10482424e+02
843             	3.10482392e+02
844             	3.10482373e+02
845             	3.10482329e+02
846             	3.10482270e+02
847             	3.10482205e+02
848             	3.10482132e+02
849             	3.10482049e+02
850             	3.10481959e+02
851             	3.10481858e+02
852             	3.10481733e+02
853             	3.10481652e+02
854             	3.10481634e+02
855             	3.10481653e+02
856             	3.10481699e+02
857             	3.10481773e+02
858             	3.10481872e+02
859             	3.10481992e+02
860             	3.10482121e+02
861             	3.10482246e+02
862             	3.10482359e+02
863             	3.10482438e+02
864             	3.10482500e+02
865             	3.10482541e+02
866             	3.10482555e+02
867             	3.10482541e+02
868             	3.10482512e+02
869             	3.10482473e+02
870             	3.10482431e+02
871             	3.10482387e+02
872             	3.10482341e+02
873             	3.10482299e+02
874             	3.10482264e+02
875             	3.10482221e+02
876             	3.10482151e+02
877             	3.10482048e+02
878             	3.10481942e+02
879             	3.10481814e+02
880             	3.10481697e+02
881             	3.10481584e+02
882             	3.10481489e+02
883             	3.10481406e+02
884             	3.10481342e+02
885             	3.10481307e+02
886             	3.10481302e+02
887             	3.10481324e+02
888             	3.10481348e+02
889             	3.10481440e+02
890             	3.10481567e+02
891             	3.10481709e+02
892             	3.10481864e+02
893             	3.10482020e+02
894             	3.10482147e+02
895             	3.10482258e+02
896             	3.10482352e+02
897             	3.10482424e+02
898             	3.10482474e+02
899             	3.10482546e+02
900             	3.10482614e+02
901             	3.10482679e+02
902             	3.10482755e+02
903             	3.10482846e+02
904             	3.10482942e+02
905             	3.10483042e+02
906             	3.10483150e+02
907             	3.10483186e+02
908             	3.10483188e+02
909             	3.10483165e+02
910             	3.10483126e+02
911             	3.10483069e+02
912             	3.10483000e+02
913             	3.10482925e+02
914             	3.10482843e+02
915             	3.10482766e+02
916             	3.10482708e+02
917             	3.10482679e+02
918             	3.10482682e+02
919             	3.10482713e+02
920             	3.10482733e+02
921             	3.10482756e+02
922             	3.10482782e+02
923             	3.10482810e+02
924             	3.10482838e+02
925             	3.10482865e+02
926             	3.10482896e+02
927             	3.10482935e+02
928             	3.10482982e+02
929             	3.10483062e+02
930             	3.10483169e+02
931             	3.10483299e+02
932             	3.10483457e+02
933             	3.10483646e+02