# Region        : cellZone pcb
# Cells         : 525
# Volume        : 1.03788773e+00
# Time          	volAverage(T)
1               	3.00012391e+02
2               	3.00035963e+02
3               	3.00068819e+02
4               	3.00110597e+02
5               	3.00159049e+02
6               	3.00214726e+02
7               	3.00277668e+02
8               	3.00346845e+02
9               	3.00423127e+02
10              	3.00506009e+02
11              	3.00595140e+02
12              	3.00689514e+02
13              	3.00788174e+02
14              	3.00892579e+02
15              	3.01002210e+02
16              	3.01116240e+02
17              	3.01234711e+02
18              	3.01355639e+02
19              	3.01482141e+02
20              	3.01610462e+02
21              	3.01741797e+02
22              	3.01876258e+02
23              	3.02014783e+02
24              	3.02155644e+02
25              	3.02299121e+02
26              	3.02443722e+02
27              	3.02590487e+02
28              	3.02738849e+02
29              	3.02889018e+02
30              	3.03041594e+02
31              	3.03197182e+02
32              	3.03356267e+02
33              	3.03516567e+02
34              	3.03678676e+02
35              	3.03842272e+02
36              	3.04005835e+02
37              	3.04169378e+02
38              	3.04333242e+02
39              	3.04498503e+02
40              	3.04666015e+02
41              	3.04836585e+02
42              	3.05004840e+02
43              	3.05174281e+02
44              	3.05347607e+02
45              	3.05515915e+02
46              	3.05689301e+02
47              	3.05862056e+02
48              	3.06033373e+02
49              	3.06207304e+02
50              	3.06379767e+02
51              	3.06552609e+02
52              	3.06723900e+02
53              	3.06894868e+02
54              	3.07068364e+02
55              	3.07238939e+02
56              	3.07407158e+02
57              	3.07575286e+02
58              	3.07741831e+02
59              	3.07908090e+02
60              	3.08074727e+02
61              	3.08239538e+02
62              	3.08402665e+02
63              	3.08564960e+02
64              	3.08730635e+02
65              	3.08898713e+02
66              	3.09065979e+02
67              	3.09228857e+02
68              	3.09390748e+02
69              	3.09549122e+02
70              	3.09704428e+02
71              	3.09859374e+02
72              	3.10014832e+02
73              	3.10169261e+02
74              	3.10319083e+02
75              	3.10471346e+02
76              	3.10626086e+02
77              	3.10779372e+02
78              	3.10932313e+02
79              	3.11084229e+02
80              	3.11236092e+02
81              	3.11389104e+02
82              	3.11546376e+02
83              	3.11704446e+02
84              	3.11860974e+02
85              	3.12012944e+02
86              	3.12161531e+02
87              	3.12306140e+02
88              	3.12450449e+02
89              	3.12595882e+02
90              	3.12734913e+02
91              	3.12873639e+02
92              	3.13011111e+02
93              	3.13150167e+02
94              	3.13289998e+02
95              	3.13429691e+02
96              	3.13566306e+02
97              	3.13699532e+02
98              	3.13836210e+02
99              	3.13973695e+02
100             	3.14111155e+02
101             	3.14247879e+02
102             	3.14381318e+02
103             	3.14513294e+02
104             	3.14645570e+02
105             	3.14778491e+02
106             	3.14910427e+02
107             	3.15036347e+02
108             	3.15161647e+02
109             	3.15285923e+02
110             	3.15407853e+02
111             	3.15529173e+02
112             	3.15650124e+02
113             	3.15769662e+02
114             	3.15890189e+02
115             	3.16012762e+02
116             	3.16136471e+02
117             	3.16260571e+02
118             	3.16383200e+02
119             	3.16503649e+02
120             	3.16621618e+02
121             	3.16738317e+02
122             	3.16854474e+02
123             	3.16970603e+02
124             	3.17085924e+02
125             	3.17200461e+02
126             	3.17314043e+02
127             	3.17425671e+02
128             	3.17536135e+02
129             	3.17645581e+02
130             	3.17753961e+02
131             	3.17860979e+02
132             	3.17967904e+02
133             	3.18074021e+02
134             	3.18178763e+02
135             	3.18283079e+02
136             	3.18387705e+02
137             	3.18491115e+02
138             	3.18593896e+02
139             	3.18697316e+02
140             	3.18801315e+02
141             	3.18905145e+02
142             	3.19008698e+02
143             	3.19110528e+02
144             	3.19214621e+02
145             	3.19318898e+02
146             	3.19423517e+02
147             	3.19526470e+02
148             	3.19627616e+02
149             	3.19729666e+02
150             	3.19833087e+02
151             	3.19931764e+02
152             	3.20029298e+02
153             	3.20123401e+02
154             	3.20218950e+02
155             	3.20313095e+02
156             	3.20406121e+02
157             	3.20498143e+02
158             	3.20592929e+02
159             	3.20686497e+02
160             	3.20780708e+02
161             	3.20872563e+02
162             	3.20963469e+02
163             	3.21054774e+02
164             	3.21148559e+02
165             	3.21239277e+02
166             	3.21325748e+02
167             	3.21409304e+02
168             	3.21495401e+02
169             	3.21581030e+02
170             	3.21666640e+02
171             	3.21749790e+02
172             	3.21833355e+02
173             	3.21917868e+02
174             	3.22002720e+02
175             	3.22086703e+02
176             	3.22170085e+02
177             	3.22251802e+02
178             	3.22332166e+02
179             	3.22412096e+02
180             	3.22489485e+02
181             	3.22566126e+02
182             	3.22641413e+02
183             	3.22715204e+02
184             	3.22788024e+02
185             	3.22860272e+02
186             	3.22933586e+02
187             	3.23004673e+02
188             	3.23074736e+02
189             	3.23143718e+02
190             	3.23211618e+02
191             	3.23279266e+02
192             	3.23346431e+02
193             	3.23413533e+02
194             	3.23480696e+02
195             	3.23548360e+02
196             	3.23616614e+02
197             	3.23685188e+02
198             	3.23752077e+02
199             	3.23819752e+02
200             	3.23887773e+02
201             	3.23955689e+02
202             	3.24023180e+02
203             	3.24089762e+02
204             	3.24155426e+02
205             	3.24220420e+02
206             	3.24285064e+02
207             	3.24348992e+02
208             	3.24412105e+02
209             	3.24474346e+02
210             	3.24536115e+02
211             	3.24596411e+02
212             	3.24656077e+02
213             	3.24714787e+02
214             	3.24772625e+02
215             	3.24829681e+02
216             	3.24886830e+02
217             	3.24944036e+02
218             	3.25002765e+02
219             	3.25059996e+02
220             	3.25116161e+02
221             	3.25172072e+02
222             	3.25228328e+02
223             	3.25284186e+02
224             	3.25340225e+02
225             	3.25394889e+02
226             	3.25449088e+02
227             	3.25504165e+02
228             	3.25559658e+02
229             	3.25614330e+02
230             	3.25668577e+02
231             	3.25722533e+02
232             	3.25775910e+02
233             	3.25829662e+02
234             	3.25881721e+02
235             	3.25931955e+02
236             	3.25981314e+02
237             	3.26030410e+02
238             	3.26079571e+02
239             	3.26128242e+02
240             	3.26176545e+02
241             	3.26224640e+02
242             	3.26272680e+02
243             	3.26320496e+02
244             	3.26368529e+02
245             	3.26416786e+02
246             	3.26464730e+02
247             	3.26512408e+02
248             	3.26558435e+02
249             	3.26603228e+02
250             	3.26648744e+02
251             	3.26694233e+02
252             	3.26739855e+02
253             	3.26784380e+02
254             	3.26828879e+02
255             	3.26872789e+02
256             	3.26915938e+02
257             	3.26958940e+02
258             	3.27001003e+02
259             	3.27042216e+02
260             	3.27082965e+02
261             	3.27123592e+02
262             	3.27163885e+02
263             	3.27203814e+02
264             	3.27243410e+02
265             	3.27282793e+02
266             	3.27322214e+02
267             	3.27361853e+02
268             	3.27401474e+02
269             	3.27441261e+02
270             	3.27481212e+02
271             	3.27521033e+02
272             	3.27560230e+02
273             	3.27598857e+02
274             	3.27636253e+02
275             	3.27673729e+02
276             	3.27711217e+02
277             	3.27748212e+02
278             	3.27784512e+02
279             	3.27820984e+02
280             	3.27856577e+02
281             	3.27891839e+02
282             	3.27926710e+02
283             	3.27961169e+02
284             	3.27995034e+02
285             	3.28028198e+02
286             	3.28061260e+02
287             	3.28093703e+02
288             	3.28125937e+02
289             	3.28157897e+02
290             	3.28189470e+02
291             	3.28220779e+02
292             	3.28252098e+02
293             	3.28283109e+02
294             	3.28313722e+02
295             	3.28344232e+02
296             	3.28374913e+02
297             	3.28405973e+02
298             	3.28437534e+02
299             	3.28469298e+02
300             	3.28501016e+02
301             	3.28531773e+02
302             	3.28562004e+02
303             	3.28591725e+02
304             	3.28621256e+02
305             	3.28650521e+02
306             	3.28680052e+02
307             	3.28709977e+02
308             	3.28739676e+02
309             	3.28768868e+02
310             	3.28797817e+02
311             	3.28825907e+02
312             	3.28853123e+02
313             	3.28879692e+02
314             	3.28905939e+02
315             	3.28931509e+02
316             	3.28956948e+02
317             	3.28981979e+02
318             	3.29007331e+02
319             	3.29032381e+02
320             	3.29057296e+02
321             	3.29082828e+02
322             	3.29108016e+02
323             	3.29133072e+02
324             	3.29157274e+02
325             	3.29180916e+02
326             	3.29204308e+02
327             	3.29227517e+02
328             	3.29250694e+02
329             	3.29274185e+02
330             	3.29298285e+02
331             	3.29323192e+02
332             	3.29348172e+02
333             	3.29372351e+02
334             	3.29395462e+02
335             	3.29418425e+02
336             	3.29441737e+02
337             	3.29464606e+02
338             	3.29486718e+02
339             	3.29508419e+02
340             	3.29530141e+02
341             	3.29550963e+02
342             	3.29570887e+02
343             	3.29590731e+02
344             	3.29610336e+02
345             	3.29629803e+02
346             	3.29649429e+02
347             	3.29669213e+02
348             	3.29689053e+02
349             	3.29708994e+02
350             	3.29728855e+02
351             	3.29748532e+02
352             	3.29767985e+02
353             	3.29787074e+02
354             	3.29806340e+02
355             	3.29825673e+02
356             	3.29844709e+02
357             	3.29863845e+02
358             	3.29882494e+02
359             	3.29901357e+02
360             	3.29920577e+02
361             	3.29939885e+02
362             	3.29959028e+02
363             	3.29977644e+02
364             	3.29995613e+02
365             	3.30012702e+02
366             	3.30029372e+02
367             	3.30046571e+02
368             	3.30064228e+02
369             	3.30080707e+02
370             	3.30096251e+02
371             	3.30111768e+02
372             	3.30126889e+02
373             	3.30141865e+02
374             	3.30156904e+02
375             	3.30172210e+02
376             	3.30188018e+02
377             	3.30204712e+02
378             	3.30221698e+02
379             	3.30238325e+02
380             	3.30254474e+02
381             	3.30270328e+02
382             	3.30286052e+02
383             	3.30302501e+02
384             	3.30319094e+02
385             	3.30335098e+02
386             	3.30350407e+02
387             	3.30365426e+02
388             	3.30379829e+02
389             	3.30393721e+02
390             	3.30407201e+02
391             	3.30420456e+02
392             	3.30433163e+02
393             	3.30445676e+02
394             	3.30457979e+02
395             	3.30470039e+02
396             	3.30482149e+02
397             	3.30493984e+02
398             	3.30505910e+02
399             	3.30517287e+02
400             	3.30528468e+02
401             	3.30539609e+02
402             	3.30550801e+02
403             	3.30562034e+02
404             	3.30573351e+02
405             	3.30584770e+02
406             	3.30596297e+02
407             	3.30607914e+02
408             	3.30619694e+02
409             	3.30631758e+02
410             	3.30643873e+02
411             	3.30655896e+02
412             	3.30668072e+02
413             	3.30680249e+02
414             	3.30692328e+02
415             	3.30704189e+02
416             	3.30716002e+02
417             	3.30727837e+02
418             	3.30739493e+02
419             	3.30751039e+02
420             	3.30762460e+02
421             	3.30773620e+02
422             	3.30784738e+02
423             	3.30795851e+02
424             	3.30806814e+02
425             	3.30817595e+02
426             	3.30828266e+02
427             	3.30838527e+02
428             	3.30848934e+02
429             	3.30859051e+02
430             	3.30869293e+02
431             	3.30879823e+02
432             	3.30890458e+02
433             	3.30901083e+02
434             	3.30911223e+02
435             	3.30920922e+02
436             	3.30930214e+02
437             	3.30939051e+02
438             	3.30947835e+02
439             	3.30956430e+02
440             	3.30965133e+02
441             	3.30973897e+02
442             	3.30982677e+02
443             	3.30991549e+02
444             	3.31000446e+02
445             	3.31009350e+02
446             	3.31018092e+02
447             	3.31026690e+02
448             	3.31035244e+02
449             	3.31043769e+02
450             	3.31052151e+02
451             	3.31060550e+02
452             	3.31068708e+02
453             	3.31076983e+02
454             	3.31085439e+02
455             	3.31093419e+02
456             	3.31101584e+02
457             	3.31109217e+02
458             	3.31117056e+02
459             	3.31124543e+02
460             	3.31131784e+02
461             	3.31139688e+02
462             	3.31147697e+02
463             	3.31155270e+02
464             	3.31162503e+02
465             	3.31169715e+02
466             	3.31177323e+02
467             	3.31185777e+02
468             	3.31193239e+02
469             	3.31200120e+02
470             	3.31207046e+02
471             	3.31213958e+02
472             	3.31220930e+02
473             	3.31228254e+02
474             	3.31235803e+02
475             	3.31243248e+02
476             	3.31250251e+02
477             	3.31256936e+02
478             	3.31264055e+02
479             	3.31271536e+02
480             	3.31279139e+02
481             	3.31286449e+02
482             	3.31293106e+02
483             	3.31299323e+02
484             	3.31305330e+02
485             	3.31311256e+02
486             	3.31317079e+02
487             	3.31322723e+02
488             	3.31328166e+02
489             	3.31333500e+02
490             	3.31338669e+02
491             	3.31343696e+02
492             	3.31348703e+02
493             	3.31353968e+02
494             	3.31359342e+02
495             	3.31364173e+02
496             	3.31368826e+02
497             	3.31373178e+02
498             	3.31377754e+02
499             	3.31382134e+02
500             	3.31386701e+02
501             	3.31391655e+02
502             	3.31396222e+02
503             	3.31400758e+02
504             	3.31405927e+02
505             	3.31411288e+02
506             	3.31416722e+02
507             	3.31421138e+02
508             	3.31424959e+02
509             	3.31428922e+02
510             	3.31433085e+02
511             	3.31437652e+02
512             	3.31442621e+02
513             	3.31448127e+02
514             	3.31453638e+02
515             	3.31459166e+02
516             	3.31464551e+02
517             	3.31469470e+02
518             	3.31473922e+02
519             	3.31478260e+02
520             	3.31482616e+02
521             	3.31487066e+02
522             	3.31491481e+02
523             	3.31495791e+02
524             	3.31500050e+02
525             	3.31504357e+02
526             	3.31508858e+02
527             	3.31513572e+02
528             	3.31518427e+02
529             	3.31522893e+02
530             	3.31527296e+02
531             	3.31531602e+02
532             	3.31535455e+02
533             	3.31539285e+02
534             	3.31543031e+02
535             	3.31546760e+02
536             	3.31550414e+02
537             	3.31553943e+02
538             	3.31557346e+02
539             	3.31560662e+02
540             	3.31563930e+02
541             	3.31567341e+02
542             	3.31570711e+02
543             	3.31573975e+02
544             	3.31577249e+02
545             	3.31580520e+02
546             	3.31583877e+02
547             	3.31587133e+02
548             	3.31590329e+02
549             	3.31593454e+02
550             	3.31596627e+02
551             	3.31599957e+02
552             	3.31603712e+02
553             	3.31607594e+02
554             	3.31611311e+02
555             	3.31614702e+02
556             	3.31617412e+02
557             	3.31619803e+02
558             	3.31622616e+02
559             	3.31625531e+02
560             	3.31628608e+02
561             	3.31632185e+02
562             	3.31636038e+02
563             	3.31639766e+02
564             	3.31643314e+02
565             	3.31646346e+02
566             	3.31649150e+02
567             	3.31651919e+02
568             	3.31654627e+02
569             	3.31657366e+02
570             	3.31660065e+02
571             	3.31662565e+02
572             	3.31665160e+02
573             	3.31667894e+02
574             	3.31670665e+02
575             	3.31673403e+02
576             	3.31676153e+02
577             	3.31678810e+02
578             	3.31681355e+02
579             	3.31683834e+02
580             	3.31686244e+02
581             	3.31688599e+02
582             	3.31690932e+02
583             	3.31693238e+02
584             	3.31695537e+02
585             	3.31697850e+02
586             	3.31700101e+02
587             	3.31702362e+02
588             	3.31704611e+02
589             	3.31706841e+02
590             	3.31709009e+02
591             	3.31711196e+02
592             	3.31713410e+02
593             	3.31715654e+02
594             	3.31717943e+02
595             	3.31720298e+02
596             	3.31722657e+02
597             	3.31725022e+02
598             	3.31727372e+02
599             	3.31729720e+02
600             	3.31732025e+02
601             	3.31734573e+02
602             	3.31736878e+02
603             	3.31738831e+02
604             	3.31741145e+02
605             	3.31742866e+02
606             	3.31744609e+02
607             	3.31746372e+02
608             	3.31748369e+02
609             	3.31750832e+02
610             	3.31753711e+02
611             	3.31756592e+02
612             	3.31759573e+02
613             	3.31762729e+02
614             	3.31765675e+02
615             	3.31768127e+02
616             	3.31770411e+02
617             	3.31772629e+02
618             	3.31774837e+02
619             	3.31777070e+02
620             	3.31779254e+02
621             	3.31781504e+02
622             	3.31783631e+02
623             	3.31785597e+02
624             	3.31787349e+02
625             	3.31789177e+02
626             	3.31790705e+02
627             	3.31792198e+02
628             	3.31793689e+02
629             	3.31795202e+02
630             	3.31796613e+02
631             	3.31797823e+02
632             	3.31798943e+02
633             	3.31800130e+02
634             	3.31801333e+02
635             	3.31802624e+02
636             	3.31803982e+02
637             	3.31805344e+02
638             	3.31806582e+02
639             	3.31807669e+02
640             	3.31808689e+02
641             	3.31809602e+02
642             	3.31810456e+02
643             	3.31811330e+02
644             	3.31812293e+02
645             	3.31813492e+02
646             	3.31815141e+02
647             	3.31816693e+02
648             	3.31818098e+02
649             	3.31819630e+02
650             	3.31821470e+02
651             	3.31823198e+02
652             	3.31824943e+02
653             	3.31827135e+02
654             	3.31828036e+02
655             	3.31828362e+02
656             	3.31829200e+02
657             	3.31829686e+02
658             	3.31830160e+02
659             	3.31830926e+02
660             	3.31832186e+02
661             	3.31834115e+02
662             	3.31836076e+02
663             	3.31837905e+02
664             	3.31839737e+02
665             	3.31841711e+02
666             	3.31843245e+02
667             	3.31844444e+02
668             	3.31845588e+02
669             	3.31846796e+02
670             	3.31847974e+02
671             	3.31849360e+02
672             	3.31850980e+02
673             	3.31852810e+02
674             	3.31854530e+02
675             	3.31856046e+02
676             	3.31857398e+02
677             	3.31858821e+02
678             	3.31860339e+02
679             	3.31861950e+02
680             	3.31863355e+02
681             	3.31864792e+02
682             	3.31866161e+02
683             	3.31867413e+02
684             	3.31868594e+02
685             	3.31869699e+02
686             	3.31870757e+02
687             	3.31871855e+02
688             	3.31873039e+02
689             	3.31874097e+02
690             	3.31875053e+02
691             	3.31875984e+02
692             	3.31876878e+02
693             	3.31877754e+02
694             	3.31878644e+02
695             	3.31879553e+02
696             	3.31880485e+02
697             	3.31881507e+02
698             	3.31882833e+02
699             	3.31883824e+02
700             	3.31885194e+02
701             	3.31886249e+02
702             	3.31887104e+02
703             	3.31888014e+02
704             	3.31889013e+02
705             	3.31890642e+02
706             	3.31892205e+02
707             	3.31893637e+02
708             	3.31894111e+02
709             	3.31894113e+02
710             	3.31894043e+02
711             	3.31893901e+02
712             	3.31893976e+02
713             	3.31894725e+02
714             	3.31895745e+02
715             	3.31896964e+02
716             	3.31898370e+02
717             	3.31899690e+02
718             	3.31900533e+02
719             	3.31901068e+02
720             	3.31901486e+02
721             	3.31901875e+02
722             	3.31902294e+02
723             	3.31902766e+02
724             	3.31903324e+02
725             	3.31904150e+02
726             	3.31905268e+02
727             	3.31906468e+02
728             	3.31907704e+02
729             	3.31908773e+02
730             	3.31909562e+02
731             	3.31910155e+02
732             	3.31910534e+02
733             	3.31910796e+02
734             	3.31910949e+02
735             	3.31911078e+02
736             	3.31911199e+02
737             	3.31911266e+02
738             	3.31911276e+02
739             	3.31911232e+02
740             	3.31911149e+02
741             	3.31911079e+02
742             	3.31911069e+02
743             	3.31911147e+02
744             	3.31911345e+02
745             	3.31911672e+02
746             	3.31911986e+02
747             	3.31912349e+02
748             	3.31912734e+02
749             	3.31913285e+02
750             	3.31914307e+02
751             	3.31915278e+02
752             	3.31916876e+02
753             	3.31917961e+02
754             	3.31918600e+02
755             	3.31919138e+02
756             	3.31919650e+02
757             	3.31920129e+02
758             	3.31920748e+02
759             	3.31921666e+02
760             	3.31923099e+02
761             	3.31924566e+02
762             	3.31926066e+02
763             	3.31927244e+02
764             	3.31927985e+02
765             	3.31928772e+02
766             	3.31929565e+02
767             	3.31930313e+02
768             	3.31931051e+02
769             	3.31931646e+02
770             	3.31932300e+02
771             	3.31932802e+02
772             	3.31933121e+02
773             	3.31933567e+02
774             	3.31934202e+02
775             	3.31934986e+02
776             	3.31935587e+02
777             	3.31935988e+02
778             	3.31936502e+02
779             	3.31937075e+02
780             	3.31937675e+02
781             	3.31938204e+02
782             	3.31938688e+02
783             	3.31939083e+02
784             	3.31939432e+02
785             	3.31939775e+02
786             	3.31940118e+02
787             	3.31940445e+02
788             	3.31940711e+02
789             	3.31940990e+02
790             	3.31941330e+02
791             	3.31941650e+02
792             	3.31941966e+02
793             	3.31942312e+02
794             	3.31942702e+02
795             	3.31943181e+02
796             	3.31943977e+02
797             	3.31944370e+02
798             	3.31944999e+02
799             	3.31945127e+02
800             	3.31945384e+02
801             	3.31946063e+02
802             	3.31946255e+02
803             	3.31946180e+02
804             	3.31947116e+02
805             	3.31947758e+02
806             	3.31948044e+02
807             	3.31948969e+02
808             	3.31949686e+02
809             	3.31950794e+02
810             	3.31952275e+02
811             	3.31953151e+02
812             	3.31953483e+02
813             	3.31953458e+02
814             	3.31953458e+02
815             	3.31953439e+02
816             	3.31953646e+02
817             	3.31954019e+02
818             	3.31954534e+02
819             	3.31955162e+02
820             	3.31955960e+02
821             	3.31956830e+02
822             	3.31957840e+02
823             	3.31958807e+02
824             	3.31959550e+02
825             	3.31960123e+02
826             	3.31960543e+02
827             	3.31960946e+02
828             	3.31961254e+02
829             	3.31961571e+02
830             	3.31961885e+02
831             	3.31962217e+02
832             	3.31962539e+02
833             	3.31962771e+02
834             	3.31962878e+02
835             	3.31962874e+02
836             	3.31962836e+02
837             	3.31962774e+02
838             	3.31962803e+02
839             	3.31962859e+02
840             	3.31962988e+02
841             	3.31963276e+02
842             	3.31963701e+02
843             	3.31964126e+02
844             	3.31964518e+02
845             	3.31964918e+02
846             	3.31965456e+02
847             	3.31966012e+02
848             	3.31966603e+02
849             	3.31967102e+02
850             	3.31967538e+02
851             	3.31968212e+02
852             	3.31969277e+02
853             	3.31969799e+02
854             	3.31970062e+02
855             	3.31970396e+02
856             	3.31971591e+02
857             	3.31972362e+02
858             	3.31972834e+02
859             	3.31973570e+02
860             	3.31974100e+02
861             	3.31974419e+02
862             	3.31974863e+02
863             	3.31975594e+02
864             	3.31976519e+02
865             	3.31977103e+02
866             	3.31977652e+02
867             	3.31978082e+02
868             	3.31978417e+02
869             	3.31978561e+02
870             	3.31978495e+02
871             	3.31978297e+02
872             	3.31977936e+02
873             	3.31977645e+02
874             	3.31977470e+02
875             	3.31977400e+02
876             	3.31977325e+02
877             	3.31977158e+02
878             	3.31976977e+02
879             	3.31976804e+02
880             	3.31976584e+02
881             	3.31976308e+02
882             	3.31975971e+02
883             	3.31975687e+02
884             	3.31975419e+02
885             	3.31975061e+02
886             	3.31974582e+02
887             	3.31973972e+02
888             	3.31973277e+02
889             	3.31972546e+02
890             	3.31971713e+02
891             	3.31970824e+02
892             	3.31969914e+02
893             	3.31969118e+02
894             	3.31968496e+02
895             	3.31968226e+02
896             	3.31968951e+02
897             	3.31969949e+02
898             	3.31970892e+02
899             	3.31971635e+02
900             	3.31972285e+02
901             	3.31972211e+02
902             	3.31971622e+02
903             	3.31970844e+02
904             	3.31970355e+02
905             	3.31970111e+02
906             	3.31969686e+02
907             	3.31969662e+02
908             	3.31970177e+02
909             	3.31971091e+02
910             	3.31972145e+02
911             	3.31972963e+02
912             	3.31973533e+02
913             	3.31973963e+02
914             	3.31974339e+02
915             	3.31974586e+02
916             	3.31974676e+02
917             	3.31974431e+02
918             	3.31974053e+02
919             	3.31973650e+02
920             	3.31973414e+02
921             	3.31973399e+02
922             	3.31973614e+02
923             	3.31973891e+02
924             	3.31974032e+02
925             	3.31973899e+02
926             	3.31973859e+02
927             	3.31973934e+02
928             	3.31974073e+02
929             	3.31974204e+02
930             	3.31974435e+02
931             	3.31974723e+02
932             	3.31975051e+02
933             	3.31975284e+02