# Region        : cellZone fluid
# Cells         : 9344
# Volume        : 1.74083624e+01
# Time          	volAverage(T)
1               	2.99999812e+02
2               	2.99999824e+02
3               	3.00000454e+02
4               	3.00001289e+02
5               	3.00001875e+02
6               	3.00002498e+02
7               	3.00003196e+02
8               	3.00003874e+02
9               	3.00004743e+02
10              	3.00005644e+02
11              	3.00006809e+02
12              	3.00008180e+02
13              	3.00009492e+02
14              	3.00011127e+02
15              	3.00012390e+02
16              	3.00013881e+02
17              	3.00015297e+02
18              	3.00016572e+02
19              	3.00018569e+02
20              	3.00020268e+02
21              	3.00021766e+02
22              	3.00024103e+02
23              	3.00026376e+02
24              	3.00029222e+02
25              	3.00031275e+02
26              	3.00033473e+02
27              	3.00035235e+02
28              	3.00037362e+02
29              	3.00039174e+02
30              	3.00041539e+02
31              	3.00043538e+02
32              	3.00045747e+02
33              	3.00047892e+02
34              	3.00050148e+02
35              	3.00051704e+02
36              	3.00054603e+02
37              	3.00057202e+02
38              	3.00059290e+02
39              	3.00061123e+02
40              	3.00063333e+02
41              	3.00065581e+02
42              	3.00067803e+02
43              	3.00070976e+02
44              	3.00072908e+02
45              	3.00075637e+02
46              	3.00077966e+02
47              	3.00081204e+02
48              	3.00082926e+02
49              	3.00085210e+02
50              	3.00086452e+02
51              	3.00088310e+02
52              	3.00090630e+02
53              	3.00092118e+02
54              	3.00093886e+02
55              	3.00094795e+02
56              	3.00097546e+02
57              	3.00100815e+02
58              	3.00103327e+02
59              	3.00106228e+02
60              	3.00109206e+02
61              	3.00112260e+02
62              	3.00114850e+02
63              	3.00117132e+02
64              	3.00119935e+02
65              	3.00122148e+02
66              	3.00123736e+02
67              	3.00126620e+02
68              	3.00128407e+02
69              	3.00130630e+02
70              	3.00132723e+02
71              	3.00134743e+02
72              	3.00136052e+02
73              	3.00138796e+02
74              	3.00141139e+02
75              	3.00141982e+02
76              	3.00142907e+02
77              	3.00144175e+02
78              	3.00145324e+02
79              	3.00146794e+02
80              	3.00148483e+02
81              	3.00149914e+02
82              	3.00151273e+02
83              	3.00152590e+02
84              	3.00153889e+02
85              	3.00155388e+02
86              	3.00157085e+02
87              	3.00159285e+02
88              	3.00161546e+02
89              	3.00164237e+02
90              	3.00166119e+02
91              	3.00168214e+02
92              	3.00170475e+02
93              	3.00172113e+02
94              	3.00173140e+02
95              	3.00177921e+02
96              	3.00178934e+02
97              	3.00180226e+02
98              	3.00181061e+02
99              	3.00182109e+02
100             	3.00183697e+02
101             	3.00185176e+02
102             	3.00187228e+02
103             	3.00189433e+02
104             	3.00191645e+02
105             	3.00193706e+02
106             	3.00195103e+02
107             	3.00195978e+02
108             	3.00198217e+02
109             	3.00199441e+02
110             	3.00199745e+02
111             	3.00200019e+02
112             	3.00201791e+02
113             	3.00202973e+02
114             	3.00204767e+02
115             	3.00205604e+02
116             	3.00205811e+02
117             	3.00207761e+02
118             	3.00210769e+02
119             	3.00212492e+02
120             	3.00213740e+02
121             	3.00214599e+02
122             	3.00215527e+02
123             	3.00215854e+02
124             	3.00217222e+02
125             	3.00218175e+02
126             	3.00218948e+02
127             	3.00220110e+02
128             	3.00221115e+02
129             	3.00222767e+02
130             	3.00223011e+02
131             	3.00225429e+02
132             	3.00226647e+02
133             	3.00227595e+02
134             	3.00228870e+02
135             	3.00229857e+02
136             	3.00231356e+02
137             	3.00232732e+02
138             	3.00233921e+02
139             	3.00235266e+02
140             	3.00237566e+02
141             	3.00238979e+02
142             	3.00239439e+02
143             	3.00240299e+02
144             	3.00240779e+02
145             	3.00240760e+02
146             	3.00240291e+02
147             	3.00240693e+02
148             	3.00241600e+02
149             	3.00242079e+02
150             	3.00242288e+02
151             	3.00242722e+02
152             	3.00242846e+02
153             	3.00242679e+02
154             	3.00241670e+02
155             	3.00242681e+02
156             	3.00243156e+02
157             	3.00243286e+02
158             	3.00244166e+02
159             	3.00244951e+02
160             	3.00246663e+02
161             	3.00248033e+02
162             	3.00248071e+02
163             	3.00249981e+02
164             	3.00251376e+02
165             	3.00251756e+02
166             	3.00251903e+02
167             	3.00252812e+02
168             	3.00253138e+02
169             	3.00253699e+02
170             	3.00254279e+02
171             	3.00254543e+02
172             	3.00255250e+02
173             	3.00255175e+02
174             	3.00256981e+02
175             	3.00257749e+02
176             	3.00258747e+02
177             	3.00259987e+02
178             	3.00261217e+02
179             	3.00262528e+02
180             	3.00264029e+02
181             	3.00263723e+02
182             	3.00264608e+02
183             	3.00265140e+02
184             	3.00266246e+02
185             	3.00267208e+02
186             	3.00267871e+02
187             	3.00268307e+02
188             	3.00268630e+02
189             	3.00270104e+02
190             	3.00270565e+02
191             	3.00272046e+02
192             	3.00271963e+02
193             	3.00272101e+02
194             	3.00271964e+02
195             	3.00271951e+02
196             	3.00272242e+02
197             	3.00273046e+02
198             	3.00274049e+02
199             	3.00275303e+02
200             	3.00275438e+02
201             	3.00274859e+02
202             	3.00274943e+02
203             	3.00276134e+02
204             	3.00275991e+02
205             	3.00275627e+02
206             	3.00276748e+02
207             	3.00278445e+02
208             	3.00280164e+02
209             	3.00281768e+02
210             	3.00283035e+02
211             	3.00283348e+02
212             	3.00285159e+02
213             	3.00284798e+02
214             	3.00284503e+02
215             	3.00285101e+02
216             	3.00285548e+02
217             	3.00285938e+02
218             	3.00286047e+02
219             	3.00286213e+02
220             	3.00285885e+02
221             	3.00286661e+02
222             	3.00287906e+02
223             	3.00288832e+02
224             	3.00289566e+02
225             	3.00289469e+02
226             	3.00290533e+02
227             	3.00290760e+02
228             	3.00291199e+02
229             	3.00292379e+02
230             	3.00293950e+02
231             	3.00295003e+02
232             	3.00296303e+02
233             	3.00296103e+02
234             	3.00296242e+02
235             	3.00296718e+02
236             	3.00298344e+02
237             	3.00299855e+02
238             	3.00301108e+02
239             	3.00301523e+02
240             	3.00301816e+02
241             	3.00302725e+02
242             	3.00302624e+02
243             	3.00301699e+02
244             	3.00300593e+02
245             	3.00301059e+02
246             	3.00301423e+02
247             	3.00301114e+02
248             	3.00301103e+02
249             	3.00301381e+02
250             	3.00301753e+02
251             	3.00302134e+02
252             	3.00302363e+02
253             	3.00301715e+02
254             	3.00301511e+02
255             	3.00302042e+02
256             	3.00302638e+02
257             	3.00302690e+02
258             	3.00302480e+02
259             	3.00303268e+02
260             	3.00302788e+02
261             	3.00302690e+02
262             	3.00302157e+02
263             	3.00301779e+02
264             	3.00301868e+02
265             	3.00303376e+02
266             	3.00302615e+02
267             	3.00302661e+02
268             	3.00303076e+02
269             	3.00304130e+02
270             	3.00304708e+02
271             	3.00304950e+02
272             	3.00304714e+02
273             	3.00304802e+02
274             	3.00305324e+02
275             	3.00305791e+02
276             	3.00305512e+02
277             	3.00305348e+02
278             	3.00304631e+02
279             	3.00305175e+02
280             	3.00305739e+02
281             	3.00305939e+02
282             	3.00306089e+02
283             	3.00305870e+02
284             	3.00306158e+02
285             	3.00305941e+02
286             	3.00305867e+02
287             	3.00306114e+02
288             	3.00306140e+02
289             	3.00306114e+02
290             	3.00306020e+02
291             	3.00305948e+02
292             	3.00306027e+02
293             	3.00305839e+02
294             	3.00305289e+02
295             	3.00305981e+02
296             	3.00305916e+02
297             	3.00305621e+02
298             	3.00306164e+02
299             	3.00306204e+02
300             	3.00305932e+02
301             	3.00305836e+02
302             	3.00307004e+02
303             	3.00306676e+02
304             	3.00306533e+02
305             	3.00306768e+02
306             	3.00307131e+02
307             	3.00307610e+02
308             	3.00307666e+02
309             	3.00308003e+02
310             	3.00308265e+02
311             	3.00308381e+02
312             	3.00307959e+02
313             	3.00308356e+02
314             	3.00308656e+02
315             	3.00308414e+02
316             	3.00308282e+02
317             	3.00307585e+02
318             	3.00306996e+02
319             	3.00306395e+02
320             	3.00305403e+02
321             	3.00304756e+02
322             	3.00304383e+02
323             	3.00304264e+02
324             	3.00304078e+02
325             	3.00303452e+02
326             	3.00302773e+02
327             	3.00302334e+02
328             	3.00301976e+02
329             	3.00301659e+02
330             	3.00301436e+02
331             	3.00301321e+02
332             	3.00301881e+02
333             	3.00302741e+02
334             	3.00302344e+02
335             	3.00303464e+02
336             	3.00303654e+02
337             	3.00304962e+02
338             	3.00306201e+02
339             	3.00307042e+02
340             	3.00307609e+02
341             	3.00308143e+02
342             	3.00308228e+02
343             	3.00307736e+02
344             	3.00308647e+02
345             	3.00307916e+02
346             	3.00308158e+02
347             	3.00307550e+02
348             	3.00308053e+02
349             	3.00307861e+02
350             	3.00307871e+02
351             	3.00307914e+02
352             	3.00308201e+02
353             	3.00307291e+02
354             	3.00307594e+02
355             	3.00308893e+02
356             	3.00309977e+02
357             	3.00310895e+02
358             	3.00311429e+02
359             	3.00311331e+02
360             	3.00311314e+02
361             	3.00311211e+02
362             	3.00310316e+02
363             	3.00310749e+02
364             	3.00309248e+02
365             	3.00309573e+02
366             	3.00308333e+02
367             	3.00307577e+02
368             	3.00307077e+02
369             	3.00306926e+02
370             	3.00307405e+02
371             	3.00307718e+02
372             	3.00308287e+02
373             	3.00308818e+02
374             	3.00308537e+02
375             	3.00308476e+02
376             	3.00308885e+02
377             	3.00309691e+02
378             	3.00309672e+02
379             	3.00310582e+02
380             	3.00311194e+02
381             	3.00311273e+02
382             	3.00311187e+02
383             	3.00311277e+02
384             	3.00312165e+02
385             	3.00312286e+02
386             	3.00312799e+02
387             	3.00313520e+02
388             	3.00313605e+02
389             	3.00313416e+02
390             	3.00314052e+02
391             	3.00314206e+02
392             	3.00314502e+02
393             	3.00314604e+02
394             	3.00315496e+02
395             	3.00315820e+02
396             	3.00316241e+02
397             	3.00316680e+02
398             	3.00316854e+02
399             	3.00316992e+02
400             	3.00317255e+02
401             	3.00317131e+02
402             	3.00317144e+02
403             	3.00317497e+02
404             	3.00317727e+02
405             	3.00317860e+02
406             	3.00317961e+02
407             	3.00318103e+02
408             	3.00318197e+02
409             	3.00318150e+02
410             	3.00318054e+02
411             	3.00317919e+02
412             	3.00317870e+02
413             	3.00318208e+02
414             	3.00318056e+02
415             	3.00318056e+02
416             	3.00317988e+02
417             	3.00317993e+02
418             	3.00318027e+02
419             	3.00318121e+02
420             	3.00318255e+02
421             	3.00318481e+02
422             	3.00318870e+02
423             	3.00319198e+02
424             	3.00319595e+02
425             	3.00319552e+02
426             	3.00319795e+02
427             	3.00320501e+02
428             	3.00320494e+02
429             	3.00320582e+02
430             	3.00320755e+02
431             	3.00321292e+02
432             	3.00321364e+02
433             	3.00321409e+02
434             	3.00321499e+02
435             	3.00321990e+02
436             	3.00322799e+02
437             	3.00322972e+02
438             	3.00323350e+02
439             	3.00322749e+02
440             	3.00323350e+02
441             	3.00323550e+02
442             	3.00323936e+02
443             	3.00324144e+02
444             	3.00324311e+02
445             	3.00324708e+02
446             	3.00324713e+02
447             	3.00324662e+02
448             	3.00324551e+02
449             	3.00324294e+02
450             	3.00324092e+02
451             	3.00324122e+02
452             	3.00324174e+02
453             	3.00324171e+02
454             	3.00324217e+02
455             	3.00324310e+02
456             	3.00324343e+02
457             	3.00324400e+02
458             	3.00324420e+02
459             	3.00324389e+02
460             	3.00324513e+02
461             	3.00324664e+02
462             	3.00324831e+02
463             	3.00325024e+02
464             	3.00325212e+02
465             	3.00325369e+02
466             	3.00325604e+02
467             	3.00325783e+02
468             	3.00325921e+02
469             	3.00326038e+02
470             	3.00326078e+02
471             	3.00326085e+02
472             	3.00326065e+02
473             	3.00326024e+02
474             	3.00326021e+02
475             	3.00326088e+02
476             	3.00326052e+02
477             	3.00326068e+02
478             	3.00326138e+02
479             	3.00326609e+02
480             	3.00326790e+02
481             	3.00326851e+02
482             	3.00326976e+02
483             	3.00327188e+02
484             	3.00327501e+02
485             	3.00327702e+02
486             	3.00327863e+02
487             	3.00328119e+02
488             	3.00328292e+02
489             	3.00328491e+02
490             	3.00328777e+02
491             	3.00329046e+02
492             	3.00329351e+02
493             	3.00329745e+02
494             	3.00330049e+02
495             	3.00330414e+02
496             	3.00330707e+02
497             	3.00330789e+02
498             	3.00330817e+02
499             	3.00330863e+02
500             	3.00330945e+02
501             	3.00331115e+02
502             	3.00331252e+02
503             	3.00331537e+02
504             	3.00331937e+02
505             	3.00332060e+02
506             	3.00332211e+02
507             	3.00331877e+02
508             	3.00331899e+02
509             	3.00331842e+02
510             	3.00331745e+02
511             	3.00331522e+02
512             	3.00331342e+02
513             	3.00331203e+02
514             	3.00331083e+02
515             	3.00330881e+02
516             	3.00330740e+02
517             	3.00330505e+02
518             	3.00330288e+02
519             	3.00330307e+02
520             	3.00330075e+02
521             	3.00329928e+02
522             	3.00329897e+02
523             	3.00329882e+02
524             	3.00329967e+02
525             	3.00329964e+02
526             	3.00330095e+02
527             	3.00330322e+02
528             	3.00330456e+02
529             	3.00330318e+02
530             	3.00330622e+02
531             	3.00330810e+02
532             	3.00330983e+02
533             	3.00331177e+02
534             	3.00331354e+02
535             	3.00331555e+02
536             	3.00331695e+02
537             	3.00331783e+02
538             	3.00331878e+02
539             	3.00332093e+02
540             	3.00332032e+02
541             	3.00332460e+02
542             	3.00332792e+02
543             	3.00332721e+02
544             	3.00332780e+02
545             	3.00332718e+02
546             	3.00332824e+02
547             	3.00333084e+02
548             	3.00333408e+02
549             	3.00333585e+02
550             	3.00333807e+02
551             	3.00334042e+02
552             	3.00334321e+02
553             	3.00334556e+02
554             	3.00334605e+02
555             	3.00334514e+02
556             	3.00334494e+02
557             	3.00334446e+02
558             	3.00334451e+02
559             	3.00334436e+02
560             	3.00334445e+02
561             	3.00334480e+02
562             	3.00334537e+02
563             	3.00334566e+02
564             	3.00334494e+02
565             	3.00334534e+02
566             	3.00334485e+02
567             	3.00334558e+02
568             	3.00334577e+02
569             	3.00334615e+02
570             	3.00334552e+02
571             	3.00334581e+02
572             	3.00334603e+02
573             	3.00334584e+02
574             	3.00334561e+02
575             	3.00334544e+02
576             	3.00334501e+02
577             	3.00334455e+02
578             	3.00334434e+02
579             	3.00334479e+02
580             	3.00334620e+02
581             	3.00334763e+02
582             	3.00334831e+02
583             	3.00334957e+02
584             	3.00335065e+02
585             	3.00335126e+02
586             	3.00335087e+02
587             	3.00335050e+02
588             	3.00335195e+02
589             	3.00335327e+02
590             	3.00335347e+02
591             	3.00335499e+02
592             	3.00335719e+02
593             	3.00335955e+02
594             	3.00336172e+02
595             	3.00336367e+02
596             	3.00336545e+02
597             	3.00336575e+02
598             	3.00336681e+02
599             	3.00336730e+02
600             	3.00336794e+02
601             	3.00336878e+02
602             	3.00337113e+02
603             	3.00337207e+02
604             	3.00337169e+02
605             	3.00337198e+02
606             	3.00337197e+02
607             	3.00337016e+02
608             	3.00336844e+02
609             	3.00336848e+02
610             	3.00336761e+02
611             	3.00336622e+02
612             	3.00336485e+02
613             	3.00336495e+02
614             	3.00336507e+02
615             	3.00336532e+02
616             	3.00336517e+02
617             	3.00336380e+02
618             	3.00336412e+02
619             	3.00336403e+02
620             	3.00336150e+02
621             	3.00336166e+02
622             	3.00336175e+02
623             	3.00336162e+02
624             	3.00336130e+02
625             	3.00336116e+02
626             	3.00336067e+02
627             	3.00335895e+02
628             	3.00335817e+02
629             	3.00336042e+02
630             	3.00336510e+02
631             	3.00336223e+02
632             	3.00336136e+02
633             	3.00336252e+02
634             	3.00336208e+02
635             	3.00336223e+02
636             	3.00336192e+02
637             	3.00336156e+02
638             	3.00336117e+02
639             	3.00336496e+02
640             	3.00336722e+02
641             	3.00336891e+02
642             	3.00336992e+02
643             	3.00337049e+02
644             	3.00337091e+02
645             	3.00337156e+02
646             	3.00337315e+02
647             	3.00337349e+02
648             	3.00337690e+02
649             	3.00337685e+02
650             	3.00337441e+02
651             	3.00337402e+02
652             	3.00337328e+02
653             	3.00337534e+02
654             	3.00337570e+02
655             	3.00337859e+02
656             	3.00338000e+02
657             	3.00338216e+02
658             	3.00338398e+02
659             	3.00338526e+02
660             	3.00338060e+02
661             	3.00338176e+02
662             	3.00338200e+02
663             	3.00338130e+02
664             	3.00337966e+02
665             	3.00337801e+02
666             	3.00337607e+02
667             	3.00337486e+02
668             	3.00337452e+02
669             	3.00337462e+02
670             	3.00337446e+02
671             	3.00337216e+02
672             	3.00336936e+02
673             	3.00336745e+02
674             	3.00336621e+02
675             	3.00336552e+02
676             	3.00336509e+02
677             	3.00336493e+02
678             	3.00336479e+02
679             	3.00336502e+02
680             	3.00336699e+02
681             	3.00336884e+02
682             	3.00336902e+02
683             	3.00336900e+02
684             	3.00336828e+02
685             	3.00337019e+02
686             	3.00337179e+02
687             	3.00337286e+02
688             	3.00337341e+02
689             	3.00337337e+02
690             	3.00337304e+02
691             	3.00337489e+02
692             	3.00337806e+02
693             	3.00337678e+02
694             	3.00337866e+02
695             	3.00337809e+02
696             	3.00337809e+02
697             	3.00337843e+02
698             	3.00337887e+02
699             	3.00337938e+02
700             	3.00338015e+02
701             	3.00338168e+02
702             	3.00338374e+02
703             	3.00338548e+02
704             	3.00338603e+02
705             	3.00338362e+02
706             	3.00338255e+02
707             	3.00338246e+02
708             	3.00338269e+02
709             	3.00338434e+02
710             	3.00338606e+02
711             	3.00338592e+02
712             	3.00338663e+02
713             	3.00338666e+02
714             	3.00338636e+02
715             	3.00338446e+02
716             	3.00338223e+02
717             	3.00337983e+02
718             	3.00337821e+02
719             	3.00337666e+02
720             	3.00337532e+02
721             	3.00337405e+02
722             	3.00337285e+02
723             	3.00337158e+02
724             	3.00337056e+02
725             	3.00336955e+02
726             	3.00336870e+02
727             	3.00336717e+02
728             	3.00336576e+02
729             	3.00336429e+02
730             	3.00336291e+02
731             	3.00336162e+02
732             	3.00336058e+02
733             	3.00336007e+02
734             	3.00335976e+02
735             	3.00335953e+02
736             	3.00335980e+02
737             	3.00336061e+02
738             	3.00336220e+02
739             	3.00336233e+02
740             	3.00336391e+02
741             	3.00336544e+02
742             	3.00336723e+02
743             	3.00336908e+02
744             	3.00337066e+02
745             	3.00337251e+02
746             	3.00337434e+02
747             	3.00337616e+02
748             	3.00337776e+02
749             	3.00337903e+02
750             	3.00337999e+02
751             	3.00338202e+02
752             	3.00338533e+02
753             	3.00338512e+02
754             	3.00338534e+02
755             	3.00338549e+02
756             	3.00338570e+02
757             	3.00338629e+02
758             	3.00338736e+02
759             	3.00338812e+02
760             	3.00338915e+02
761             	3.00338997e+02
762             	3.00338942e+02
763             	3.00339030e+02
764             	3.00339106e+02
765             	3.00339155e+02
766             	3.00339155e+02
767             	3.00338961e+02
768             	3.00338889e+02
769             	3.00338823e+02
770             	3.00338767e+02
771             	3.00338687e+02
772             	3.00338576e+02
773             	3.00338479e+02
774             	3.00338393e+02
775             	3.00338310e+02
776             	3.00338221e+02
777             	3.00338041e+02
778             	3.00337976e+02
779             	3.00337979e+02
780             	3.00338032e+02
781             	3.00337839e+02
782             	3.00337718e+02
783             	3.00337674e+02
784             	3.00337640e+02
785             	3.00337641e+02
786             	3.00337648e+02
787             	3.00337548e+02
788             	3.00337634e+02
789             	3.00337668e+02
790             	3.00337668e+02
791             	3.00337862e+02
792             	3.00337864e+02
793             	3.00338012e+02
794             	3.00337974e+02
795             	3.00337982e+02
796             	3.00338105e+02
797             	3.00338129e+02
798             	3.00338190e+02
799             	3.00338344e+02
800             	3.00338592e+02
801             	3.00338703e+02
802             	3.00338757e+02
803             	3.00338750e+02
804             	3.00338714e+02
805             	3.00338754e+02
806             	3.00338785e+02
807             	3.00338829e+02
808             	3.00338895e+02
809             	3.00338978e+02
810             	3.00339043e+02
811             	3.00339154e+02
812             	3.00339220e+02
813             	3.00339334e+02
814             	3.00339427e+02
815             	3.00339471e+02
816             	3.00339201e+02
817             	3.00339105e+02
818             	3.00339166e+02
819             	3.00339216e+02
820             	3.00339276e+02
821             	3.00339295e+02
822             	3.00339285e+02
823             	3.00339176e+02
824             	3.00339089e+02
825             	3.00338912e+02
826             	3.00338773e+02
827             	3.00338637e+02
828             	3.00338532e+02
829             	3.00338466e+02
830             	3.00338302e+02
831             	3.00338186e+02
832             	3.00338080e+02
833             	3.00337984e+02
834             	3.00337896e+02
835             	3.00337789e+02
836             	3.00337704e+02
837             	3.00337637e+02
838             	3.00337704e+02
839             	3.00337893e+02
840             	3.00338021e+02
841             	3.00338091e+02
842             	3.00338115e+02
843             	3.00337960e+02
844             	3.00337746e+02
845             	3.00337648e+02
846             	3.00337623e+02
847             	3.00337775e+02
848             	3.00337939e+02
849             	3.00338025e+02
850             	3.00338175e+02
851             	3.00338309e+02
852             	3.00338476e+02
853             	3.00338630e+02
854             	3.00338781e+02
855             	3.00338925e+02
856             	3.00338976e+02
857             	3.00338987e+02
858             	3.00339025e+02
859             	3.00339092e+02
860             	3.00339097e+02
861             	3.00339111e+02
862             	3.00339149e+02
863             	3.00339238e+02
864             	3.00339332e+02
865             	3.00339397e+02
866             	3.00339417e+02
867             	3.00339395e+02
868             	3.00339166e+02
869             	3.00339126e+02
870             	3.00339155e+02
871             	3.00339265e+02
872             	3.00339481e+02
873             	3.00339448e+02
874             	3.00339506e+02
875             	3.00339425e+02
876             	3.00339261e+02
877             	3.00339093e+02
878             	3.00338895e+02
879             	3.00338748e+02
880             	3.00338645e+02
881             	3.00338556e+02
882             	3.00338429e+02
883             	3.00338291e+02
884             	3.00338247e+02
885             	3.00338196e+02
886             	3.00338138e+02
887             	3.00338080e+02
888             	3.00338002e+02
889             	3.00337924e+02
890             	3.00337833e+02
891             	3.00337749e+02
892             	3.00337676e+02
893             	3.00337657e+02
894             	3.00337676e+02
895             	3.00337584e+02
896             	3.00337543e+02
897             	3.00337654e+02
898             	3.00337811e+02
899             	3.00337758e+02
900             	3.00337878e+02
901             	3.00338009e+02
902             	3.00338052e+02
903             	3.00338142e+02
904             	3.00338280e+02
905             	3.00338382e+02
906             	3.00338393e+02
907             	3.00338495e+02
908             	3.00338617e+02
909             	3.00338755e+02
910             	3.00338883e+02
911             	3.00338995e+02
912             	3.00339087e+02
913             	3.00339169e+02
914             	3.00339252e+02
915             	3.00339300e+02
916             	3.00339338e+02
917             	3.00339386e+02
918             	3.00339430e+02
919             	3.00339462e+02
920             	3.00339512e+02
921             	3.00339559e+02
922             	3.00339588e+02
923             	3.00339607e+02
924             	3.00339587e+02
925             	3.00339483e+02
926             	3.00339346e+02
927             	3.00339286e+02
928             	3.00339207e+02
929             	3.00339181e+02
930             	3.00339147e+02
931             	3.00339079e+02
932             	3.00339021e+02
933             	3.00338900e+02