# Region        : cellZone fluid
# Cells         : 5952
# Volume        : 8.23626264e+00
# Time          	volAverage(T)
1               	3.00000723e+02
2               	3.00001384e+02
3               	3.00005426e+02
4               	3.00011622e+02
5               	3.00015544e+02
6               	3.00018574e+02
7               	3.00021435e+02
8               	3.00025067e+02
9               	3.00030543e+02
10              	3.00036725e+02
11              	3.00042909e+02
12              	3.00052649e+02
13              	3.00060979e+02
14              	3.00070654e+02
15              	3.00082426e+02
16              	3.00095276e+02
17              	3.00107693e+02
18              	3.00116629e+02
19              	3.00125210e+02
20              	3.00134857e+02
21              	3.00146223e+02
22              	3.00158241e+02
23              	3.00167987e+02
24              	3.00183476e+02
25              	3.00200910e+02
26              	3.00209113e+02
27              	3.00217765e+02
28              	3.00222089e+02
29              	3.00234571e+02
30              	3.00251408e+02
31              	3.00264310e+02
32              	3.00277025e+02
33              	3.00292563e+02
34              	3.00303675e+02
35              	3.00313981e+02
36              	3.00324036e+02
37              	3.00335688e+02
38              	3.00346597e+02
39              	3.00361237e+02
40              	3.00370353e+02
41              	3.00381359e+02
42              	3.00391639e+02
43              	3.00407874e+02
44              	3.00423744e+02
45              	3.00442134e+02
46              	3.00456056e+02
47              	3.00475494e+02
48              	3.00488911e+02
49              	3.00502384e+02
50              	3.00511769e+02
51              	3.00526522e+02
52              	3.00542738e+02
53              	3.00559222e+02
54              	3.00570767e+02
55              	3.00583077e+02
56              	3.00594265e+02
57              	3.00605052e+02
58              	3.00620466e+02
59              	3.00633933e+02
60              	3.00648601e+02
61              	3.00660402e+02
62              	3.00678151e+02
63              	3.00692883e+02
64              	3.00708806e+02
65              	3.00728840e+02
66              	3.00749552e+02
67              	3.00770046e+02
68              	3.00792145e+02
69              	3.00806127e+02
70              	3.00815646e+02
71              	3.00822538e+02
72              	3.00835943e+02
73              	3.00852157e+02
74              	3.00856799e+02
75              	3.00862596e+02
76              	3.00870888e+02
77              	3.00881330e+02
78              	3.00894681e+02
79              	3.00910062e+02
80              	3.00928708e+02
81              	3.00936667e+02
82              	3.00952351e+02
83              	3.00967257e+02
84              	3.00978133e+02
85              	3.00985457e+02
86              	3.00994430e+02
87              	3.01006832e+02
88              	3.01017270e+02
89              	3.01032302e+02
90              	3.01043308e+02
91              	3.01059864e+02
92              	3.01071904e+02
93              	3.01082072e+02
94              	3.01096612e+02
95              	3.01101884e+02
96              	3.01108244e+02
97              	3.01123086e+02
98              	3.01131839e+02
99              	3.01140080e+02
100             	3.01148832e+02
101             	3.01160852e+02
102             	3.01173868e+02
103             	3.01182834e+02
104             	3.01195833e+02
105             	3.01210832e+02
106             	3.01218152e+02
107             	3.01225855e+02
108             	3.01232079e+02
109             	3.01243020e+02
110             	3.01249696e+02
111             	3.01251015e+02
112             	3.01260468e+02
113             	3.01275207e+02
114             	3.01287540e+02
115             	3.01297900e+02
116             	3.01311425e+02
117             	3.01326393e+02
118             	3.01340077e+02
119             	3.01348696e+02
120             	3.01353644e+02
121             	3.01363164e+02
122             	3.01371036e+02
123             	3.01375686e+02
124             	3.01376773e+02
125             	3.01383730e+02
126             	3.01388858e+02
127             	3.01395163e+02
128             	3.01403627e+02
129             	3.01409044e+02
130             	3.01418887e+02
131             	3.01427188e+02
132             	3.01435071e+02
133             	3.01446011e+02
134             	3.01452995e+02
135             	3.01461249e+02
136             	3.01472028e+02
137             	3.01481973e+02
138             	3.01492809e+02
139             	3.01500285e+02
140             	3.01504730e+02
141             	3.01508370e+02
142             	3.01514586e+02
143             	3.01517136e+02
144             	3.01517662e+02
145             	3.01519414e+02
146             	3.01519956e+02
147             	3.01522341e+02
148             	3.01525363e+02
149             	3.01529933e+02
150             	3.01535770e+02
151             	3.01541981e+02
152             	3.01548086e+02
153             	3.01552142e+02
154             	3.01557472e+02
155             	3.01565913e+02
156             	3.01575623e+02
157             	3.01582042e+02
158             	3.01587188e+02
159             	3.01589133e+02
160             	3.01592533e+02
161             	3.01594186e+02
162             	3.01594379e+02
163             	3.01595547e+02
164             	3.01596936e+02
165             	3.01598951e+02
166             	3.01601945e+02
167             	3.01605545e+02
168             	3.01609921e+02
169             	3.01617876e+02
170             	3.01618426e+02
171             	3.01620394e+02
172             	3.01623211e+02
173             	3.01626930e+02
174             	3.01630535e+02
175             	3.01635054e+02
176             	3.01639125e+02
177             	3.01644274e+02
178             	3.01649067e+02
179             	3.01653813e+02
180             	3.01658099e+02
181             	3.01661584e+02
182             	3.01666352e+02
183             	3.01669764e+02
184             	3.01673560e+02
185             	3.01677364e+02
186             	3.01680645e+02
187             	3.01684311e+02
188             	3.01685643e+02
189             	3.01689765e+02
190             	3.01692477e+02
191             	3.01694124e+02
192             	3.01696374e+02
193             	3.01698545e+02
194             	3.01702018e+02
195             	3.01705405e+02
196             	3.01708920e+02
197             	3.01712383e+02
198             	3.01715699e+02
199             	3.01718179e+02
200             	3.01720346e+02
201             	3.01722462e+02
202             	3.01724398e+02
203             	3.01725820e+02
204             	3.01728194e+02
205             	3.01729730e+02
206             	3.01731621e+02
207             	3.01732630e+02
208             	3.01734413e+02
209             	3.01735798e+02
210             	3.01736792e+02
211             	3.01738780e+02
212             	3.01740058e+02
213             	3.01741609e+02
214             	3.01743571e+02
215             	3.01744886e+02
216             	3.01747285e+02
217             	3.01747680e+02
218             	3.01748854e+02
219             	3.01750654e+02
220             	3.01752520e+02
221             	3.01754580e+02
222             	3.01756824e+02
223             	3.01760173e+02
224             	3.01762883e+02
225             	3.01766061e+02
226             	3.01769396e+02
227             	3.01772188e+02
228             	3.01774173e+02
229             	3.01776667e+02
230             	3.01778388e+02
231             	3.01779956e+02
232             	3.01782404e+02
233             	3.01784195e+02
234             	3.01785601e+02
235             	3.01786955e+02
236             	3.01787871e+02
237             	3.01789631e+02
238             	3.01790828e+02
239             	3.01791836e+02
240             	3.01793135e+02
241             	3.01795524e+02
242             	3.01795769e+02
243             	3.01796673e+02
244             	3.01798025e+02
245             	3.01799655e+02
246             	3.01801421e+02
247             	3.01803387e+02
248             	3.01804663e+02
249             	3.01804882e+02
250             	3.01807707e+02
251             	3.01809707e+02
252             	3.01811064e+02
253             	3.01812449e+02
254             	3.01814666e+02
255             	3.01816973e+02
256             	3.01817339e+02
257             	3.01818597e+02
258             	3.01820654e+02
259             	3.01823262e+02
260             	3.01824897e+02
261             	3.01826827e+02
262             	3.01829048e+02
263             	3.01831072e+02
264             	3.01832895e+02
265             	3.01836172e+02
266             	3.01837868e+02
267             	3.01840580e+02
268             	3.01843513e+02
269             	3.01846348e+02
270             	3.01848712e+02
271             	3.01850688e+02
272             	3.01851958e+02
273             	3.01853141e+02
274             	3.01855306e+02
275             	3.01855131e+02
276             	3.01856354e+02
277             	3.01857804e+02
278             	3.01858425e+02
279             	3.01859630e+02
280             	3.01860540e+02
281             	3.01861588e+02
282             	3.01862765e+02
283             	3.01864169e+02
284             	3.01865458e+02
285             	3.01866211e+02
286             	3.01866458e+02
287             	3.01868003e+02
288             	3.01869007e+02
289             	3.01870012e+02
290             	3.01870514e+02
291             	3.01871275e+02
292             	3.01871903e+02
293             	3.01872490e+02
294             	3.01873925e+02
295             	3.01874362e+02
296             	3.01875084e+02
297             	3.01875956e+02
298             	3.01876855e+02
299             	3.01877901e+02
300             	3.01879005e+02
301             	3.01880251e+02
302             	3.01881727e+02
303             	3.01883333e+02
304             	3.01884935e+02
305             	3.01886539e+02
306             	3.01888578e+02
307             	3.01890134e+02
308             	3.01891819e+02
309             	3.01893551e+02
310             	3.01895296e+02
311             	3.01897029e+02
312             	3.01898595e+02
313             	3.01900024e+02
314             	3.01901538e+02
315             	3.01902872e+02
316             	3.01904003e+02
317             	3.01904771e+02
318             	3.01905826e+02
319             	3.01906546e+02
320             	3.01907186e+02
321             	3.01907642e+02
322             	3.01908179e+02
323             	3.01908551e+02
324             	3.01908832e+02
325             	3.01909054e+02
326             	3.01909279e+02
327             	3.01909746e+02
328             	3.01909794e+02
329             	3.01909920e+02
330             	3.01910108e+02
331             	3.01910357e+02
332             	3.01910660e+02
333             	3.01911249e+02
334             	3.01911724e+02
335             	3.01912257e+02
336             	3.01912943e+02
337             	3.01914029e+02
338             	3.01915034e+02
339             	3.01916084e+02
340             	3.01917285e+02
341             	3.01919074e+02
342             	3.01920739e+02
343             	3.01922366e+02
344             	3.01924258e+02
345             	3.01925948e+02
346             	3.01927539e+02
347             	3.01929144e+02
348             	3.01930513e+02
349             	3.01931887e+02
350             	3.01933154e+02
351             	3.01934314e+02
352             	3.01935281e+02
353             	3.01936105e+02
354             	3.01936817e+02
355             	3.01937384e+02
356             	3.01937804e+02
357             	3.01938129e+02
358             	3.01938238e+02
359             	3.01938312e+02
360             	3.01938358e+02
361             	3.01938357e+02
362             	3.01938224e+02
363             	3.01938032e+02
364             	3.01937854e+02
365             	3.01937715e+02
366             	3.01937623e+02
367             	3.01937567e+02
368             	3.01937628e+02
369             	3.01937961e+02
370             	3.01937933e+02
371             	3.01938111e+02
372             	3.01938436e+02
373             	3.01938817e+02
374             	3.01939280e+02
375             	3.01939882e+02
376             	3.01940977e+02
377             	3.01941766e+02
378             	3.01942615e+02
379             	3.01943614e+02
380             	3.01944806e+02
381             	3.01946078e+02
382             	3.01947347e+02
383             	3.01948592e+02
384             	3.01949997e+02
385             	3.01951114e+02
386             	3.01952151e+02
387             	3.01953089e+02
388             	3.01954152e+02
389             	3.01954943e+02
390             	3.01955562e+02
391             	3.01956082e+02
392             	3.01956771e+02
393             	3.01957195e+02
394             	3.01957415e+02
395             	3.01957547e+02
396             	3.01957541e+02
397             	3.01957462e+02
398             	3.01957558e+02
399             	3.01957444e+02
400             	3.01957109e+02
401             	3.01956593e+02
402             	3.01956232e+02
403             	3.01955938e+02
404             	3.01956079e+02
405             	3.01955813e+02
406             	3.01955694e+02
407             	3.01955716e+02
408             	3.01955818e+02
409             	3.01955979e+02
410             	3.01956198e+02
411             	3.01956729e+02
412             	3.01957123e+02
413             	3.01957552e+02
414             	3.01958058e+02
415             	3.01958933e+02
416             	3.01959742e+02
417             	3.01960630e+02
418             	3.01961565e+02
419             	3.01962729e+02
420             	3.01963712e+02
421             	3.01964786e+02
422             	3.01965743e+02
423             	3.01966891e+02
424             	3.01967797e+02
425             	3.01968570e+02
426             	3.01969249e+02
427             	3.01969822e+02
428             	3.01970324e+02
429             	3.01970740e+02
430             	3.01971035e+02
431             	3.01971262e+02
432             	3.01971381e+02
433             	3.01971378e+02
434             	3.01971283e+02
435             	3.01971057e+02
436             	3.01970786e+02
437             	3.01970721e+02
438             	3.01970411e+02
439             	3.01970066e+02
440             	3.01969752e+02
441             	3.01969716e+02
442             	3.01969589e+02
443             	3.01969510e+02
444             	3.01969527e+02
445             	3.01969643e+02
446             	3.01969850e+02
447             	3.01970239e+02
448             	3.01970364e+02
449             	3.01970665e+02
450             	3.01971104e+02
451             	3.01971644e+02
452             	3.01972285e+02
453             	3.01973019e+02
454             	3.01973830e+02
455             	3.01974905e+02
456             	3.01975771e+02
457             	3.01976451e+02
458             	3.01977251e+02
459             	3.01978285e+02
460             	3.01979025e+02
461             	3.01979761e+02
462             	3.01980360e+02
463             	3.01980865e+02
464             	3.01981308e+02
465             	3.01981690e+02
466             	3.01981930e+02
467             	3.01982030e+02
468             	3.01982005e+02
469             	3.01981847e+02
470             	3.01981559e+02
471             	3.01980948e+02
472             	3.01980402e+02
473             	3.01979855e+02
474             	3.01979202e+02
475             	3.01978526e+02
476             	3.01977902e+02
477             	3.01977621e+02
478             	3.01977265e+02
479             	3.01976846e+02
480             	3.01976585e+02
481             	3.01976342e+02
482             	3.01976130e+02
483             	3.01975994e+02
484             	3.01975928e+02
485             	3.01975900e+02
486             	3.01975928e+02
487             	3.01976056e+02
488             	3.01976399e+02
489             	3.01976736e+02
490             	3.01977100e+02
491             	3.01977490e+02
492             	3.01978228e+02
493             	3.01978841e+02
494             	3.01979434e+02
495             	3.01980074e+02
496             	3.01981072e+02
497             	3.01981820e+02
498             	3.01982491e+02
499             	3.01983548e+02
500             	3.01984340e+02
501             	3.01985015e+02
502             	3.01985616e+02
503             	3.01986408e+02
504             	3.01986931e+02
505             	3.01987288e+02
506             	3.01987455e+02
507             	3.01987502e+02
508             	3.01987421e+02
509             	3.01987261e+02
510             	3.01987037e+02
511             	3.01986781e+02
512             	3.01986437e+02
513             	3.01985849e+02
514             	3.01985066e+02
515             	3.01984500e+02
516             	3.01984035e+02
517             	3.01983644e+02
518             	3.01983493e+02
519             	3.01983047e+02
520             	3.01982817e+02
521             	3.01982573e+02
522             	3.01982339e+02
523             	3.01982116e+02
524             	3.01981928e+02
525             	3.01981830e+02
526             	3.01981871e+02
527             	3.01982166e+02
528             	3.01982787e+02
529             	3.01982947e+02
530             	3.01983336e+02
531             	3.01983960e+02
532             	3.01984583e+02
533             	3.01985464e+02
534             	3.01986200e+02
535             	3.01987192e+02
536             	3.01988087e+02
537             	3.01989165e+02
538             	3.01990048e+02
539             	3.01990741e+02
540             	3.01991619e+02
541             	3.01992405e+02
542             	3.01993074e+02
543             	3.01993604e+02
544             	3.01993866e+02
545             	3.01994011e+02
546             	3.01994075e+02
547             	3.01994010e+02
548             	3.01993856e+02
549             	3.01993629e+02
550             	3.01993270e+02
551             	3.01992600e+02
552             	3.01992063e+02
553             	3.01991492e+02
554             	3.01990854e+02
555             	3.01990145e+02
556             	3.01989420e+02
557             	3.01988703e+02
558             	3.01988046e+02
559             	3.01987823e+02
560             	3.01987098e+02
561             	3.01986607e+02
562             	3.01986337e+02
563             	3.01986306e+02
564             	3.01986303e+02
565             	3.01986312e+02
566             	3.01986422e+02
567             	3.01986846e+02
568             	3.01987138e+02
569             	3.01987417e+02
570             	3.01987721e+02
571             	3.01988559e+02
572             	3.01989314e+02
573             	3.01989986e+02
574             	3.01990678e+02
575             	3.01991657e+02
576             	3.01992500e+02
577             	3.01993242e+02
578             	3.01993980e+02
579             	3.01994720e+02
580             	3.01995631e+02
581             	3.01996219e+02
582             	3.01996532e+02
583             	3.01996806e+02
584             	3.01996999e+02
585             	3.01997081e+02
586             	3.01997046e+02
587             	3.01997115e+02
588             	3.01996788e+02
589             	3.01996437e+02
590             	3.01995986e+02
591             	3.01995514e+02
592             	3.01995040e+02
593             	3.01994569e+02
594             	3.01994089e+02
595             	3.01993647e+02
596             	3.01993220e+02
597             	3.01992804e+02
598             	3.01992419e+02
599             	3.01992089e+02
600             	3.01992001e+02
601             	3.01991564e+02
602             	3.01991336e+02
603             	3.01991280e+02
604             	3.01991353e+02
605             	3.01991550e+02
606             	3.01991855e+02
607             	3.01992480e+02
608             	3.01993000e+02
609             	3.01993526e+02
610             	3.01994044e+02
611             	3.01994800e+02
612             	3.01995756e+02
613             	3.01996528e+02
614             	3.01997209e+02
615             	3.01998109e+02
616             	3.01998779e+02
617             	3.01999342e+02
618             	3.01999828e+02
619             	3.02000226e+02
620             	3.02000529e+02
621             	3.02000738e+02
622             	3.02000836e+02
623             	3.02000837e+02
624             	3.02000742e+02
625             	3.02000568e+02
626             	3.02000306e+02
627             	3.01999921e+02
628             	3.01999484e+02
629             	3.01998979e+02
630             	3.01998446e+02
631             	3.01997898e+02
632             	3.01997355e+02
633             	3.01996843e+02
634             	3.01996618e+02
635             	3.01996262e+02
636             	3.01995924e+02
637             	3.01995531e+02
638             	3.01995280e+02
639             	3.01995103e+02
640             	3.01994991e+02
641             	3.01995026e+02
642             	3.01995153e+02
643             	3.01995453e+02
644             	3.01995719e+02
645             	3.01996089e+02
646             	3.01996579e+02
647             	3.01997166e+02
648             	3.01997827e+02
649             	3.01998537e+02
650             	3.01999206e+02
651             	3.01999885e+02
652             	3.02000773e+02
653             	3.02001373e+02
654             	3.02001878e+02
655             	3.02002283e+02
656             	3.02002865e+02
657             	3.02003235e+02
658             	3.02003388e+02
659             	3.02003400e+02
660             	3.02003275e+02
661             	3.02003126e+02
662             	3.02002807e+02
663             	3.02002364e+02
664             	3.02001828e+02
665             	3.02001231e+02
666             	3.02000604e+02
667             	3.01999991e+02
668             	3.01999272e+02
669             	3.01998604e+02
670             	3.01997927e+02
671             	3.01997295e+02
672             	3.01996775e+02
673             	3.01996400e+02
674             	3.01995997e+02
675             	3.01995701e+02
676             	3.01995517e+02
677             	3.01995437e+02
678             	3.01995438e+02
679             	3.01995451e+02
680             	3.01995624e+02
681             	3.01995929e+02
682             	3.01996574e+02
683             	3.01997104e+02
684             	3.01997669e+02
685             	3.01998312e+02
686             	3.01999032e+02
687             	3.02000015e+02
688             	3.02000814e+02
689             	3.02001469e+02
690             	3.02002184e+02
691             	3.02003012e+02
692             	3.02003483e+02
693             	3.02003830e+02
694             	3.02004136e+02
695             	3.02004707e+02
696             	3.02004940e+02
697             	3.02005006e+02
698             	3.02004921e+02
699             	3.02004712e+02
700             	3.02004414e+02
701             	3.02004013e+02
702             	3.02003518e+02
703             	3.02002941e+02
704             	3.02002313e+02
705             	3.02001651e+02
706             	3.02000943e+02
707             	3.02000276e+02
708             	3.01999882e+02
709             	3.01999367e+02
710             	3.01998931e+02
711             	3.01998512e+02
712             	3.01998157e+02
713             	3.01997931e+02
714             	3.01997821e+02
715             	3.01997809e+02
716             	3.01997905e+02
717             	3.01998106e+02
718             	3.01998183e+02
719             	3.01998454e+02
720             	3.01998853e+02
721             	3.01999334e+02
722             	3.01999865e+02
723             	3.02000449e+02
724             	3.02001071e+02
725             	3.02001910e+02
726             	3.02002610e+02
727             	3.02003285e+02
728             	3.02003829e+02
729             	3.02004410e+02
730             	3.02005091e+02
731             	3.02005510e+02
732             	3.02005801e+02
733             	3.02006000e+02
734             	3.02006109e+02
735             	3.02006193e+02
736             	3.02006145e+02
737             	3.02005985e+02
738             	3.02005714e+02
739             	3.02005387e+02
740             	3.02004985e+02
741             	3.02004523e+02
742             	3.02004252e+02
743             	3.02003718e+02
744             	3.02002996e+02
745             	3.02002210e+02
746             	3.02001564e+02
747             	3.02001103e+02
748             	3.02000486e+02
749             	3.01999956e+02
750             	3.01999481e+02
751             	3.01999076e+02
752             	3.01998723e+02
753             	3.01998418e+02
754             	3.01998185e+02
755             	3.01998014e+02
756             	3.01998064e+02
757             	3.01998027e+02
758             	3.01998107e+02
759             	3.01998510e+02
760             	3.01998803e+02
761             	3.01999112e+02
762             	3.01999469e+02
763             	3.02000163e+02
764             	3.02000777e+02
765             	3.02001276e+02
766             	3.02001805e+02
767             	3.02002586e+02
768             	3.02003159e+02
769             	3.02003647e+02
770             	3.02004052e+02
771             	3.02004442e+02
772             	3.02004962e+02
773             	3.02005153e+02
774             	3.02005179e+02
775             	3.02005046e+02
776             	3.02004808e+02
777             	3.02004459e+02
778             	3.02004041e+02
779             	3.02003544e+02
780             	3.02003004e+02
781             	3.02002427e+02
782             	3.02001874e+02
783             	3.02001257e+02
784             	3.02000659e+02
785             	3.02000116e+02
786             	3.01999551e+02
787             	3.01999055e+02
788             	3.01998722e+02
789             	3.01998595e+02
790             	3.01998380e+02
791             	3.01998215e+02
792             	3.01998119e+02
793             	3.01998109e+02
794             	3.01998189e+02
795             	3.01998385e+02
796             	3.01998750e+02
797             	3.01999223e+02
798             	3.02000006e+02
799             	3.02000694e+02
800             	3.02001411e+02
801             	3.02002170e+02
802             	3.02002979e+02
803             	3.02003938e+02
804             	3.02004776e+02
805             	3.02005437e+02
806             	3.02005955e+02
807             	3.02006404e+02
808             	3.02006980e+02
809             	3.02007295e+02
810             	3.02007515e+02
811             	3.02007511e+02
812             	3.02007330e+02
813             	3.02007003e+02
814             	3.02006548e+02
815             	3.02005980e+02
816             	3.02005306e+02
817             	3.02004552e+02
818             	3.02003755e+02
819             	3.02002921e+02
820             	3.02002118e+02
821             	3.02001298e+02
822             	3.02000529e+02
823             	3.01999840e+02
824             	3.01999249e+02
825             	3.01998773e+02
826             	3.01998426e+02
827             	3.01998195e+02
828             	3.01998078e+02
829             	3.01998047e+02
830             	3.01998085e+02
831             	3.01998061e+02
832             	3.01998231e+02
833             	3.01998363e+02
834             	3.01998665e+02
835             	3.01999104e+02
836             	3.01999646e+02
837             	3.02000273e+02
838             	3.02001201e+02
839             	3.02001993e+02
840             	3.02002755e+02
841             	3.02003374e+02
842             	3.02004327e+02
843             	3.02005034e+02
844             	3.02005502e+02
845             	3.02005838e+02
846             	3.02006221e+02
847             	3.02006585e+02
848             	3.02006659e+02
849             	3.02006574e+02
850             	3.02006326e+02
851             	3.02005925e+02
852             	3.02005395e+02
853             	3.02004729e+02
854             	3.02003958e+02
855             	3.02003135e+02
856             	3.02002284e+02
857             	3.02001442e+02
858             	3.02000607e+02
859             	3.01999812e+02
860             	3.01998956e+02
861             	3.01998286e+02
862             	3.01997738e+02
863             	3.01997348e+02
864             	3.01997021e+02
865             	3.01996794e+02
866             	3.01996688e+02
867             	3.01996656e+02
868             	3.01996714e+02
869             	3.01996889e+02
870             	3.01996855e+02
871             	3.01997239e+02
872             	3.01997539e+02
873             	3.01997834e+02
874             	3.01998188e+02
875             	3.01998646e+02
876             	3.01999242e+02
877             	3.02000031e+02
878             	3.02000803e+02
879             	3.02001914e+02
880             	3.02002661e+02
881             	3.02003260e+02
882             	3.02003910e+02
883             	3.02004315e+02
884             	3.02004418e+02
885             	3.02004821e+02
886             	3.02005294e+02
887             	3.02005430e+02
888             	3.02005333e+02
889             	3.02005113e+02
890             	3.02004793e+02
891             	3.02004380e+02
892             	3.02003872e+02
893             	3.02003268e+02
894             	3.02002584e+02
895             	3.02001846e+02
896             	3.02001099e+02
897             	3.02000500e+02
898             	3.01999726e+02
899             	3.01999131e+02
900             	3.01998615e+02
901             	3.01998185e+02
902             	3.01997881e+02
903             	3.01997699e+02
904             	3.01997587e+02
905             	3.01997568e+02
906             	3.01997661e+02
907             	3.01997866e+02
908             	3.01998165e+02
909             	3.01998783e+02
910             	3.01999275e+02
911             	3.01999806e+02
912             	3.02000435e+02
913             	3.02001180e+02
914             	3.02002274e+02
915             	3.02003203e+02
916             	3.02004095e+02
917             	3.02004935e+02
918             	3.02005731e+02
919             	3.02006671e+02
920             	3.02007326e+02
921             	3.02007790e+02
922             	3.02008117e+02
923             	3.02008327e+02
924             	3.02008346e+02
925             	3.02008287e+02
926             	3.02007921e+02
927             	3.02007327e+02
928             	3.02006641e+02
929             	3.02005835e+02
930             	3.02005032e+02
931             	3.02004313e+02
932             	3.02003405e+02
933             	3.02002463e+02