# Region        : cellZone fluid
# Cells         : 10195
# Volume        : 5.16124030e+00
# Time          	volAverage(T)
1               	3.00000072e+02
2               	3.00000149e+02
3               	3.00000717e+02
4               	3.00001669e+02
5               	3.00002624e+02
6               	3.00003949e+02
7               	3.00005435e+02
8               	3.00007094e+02
9               	3.00008833e+02
10              	3.00011040e+02
11              	3.00013467e+02
12              	3.00016339e+02
13              	3.00018608e+02
14              	3.00022014e+02
15              	3.00025032e+02
16              	3.00027332e+02
17              	3.00029631e+02
18              	3.00032167e+02
19              	3.00035363e+02
20              	3.00038356e+02
21              	3.00041317e+02
22              	3.00045564e+02
23              	3.00050071e+02
24              	3.00054876e+02
25              	3.00058679e+02
26              	3.00062736e+02
27              	3.00066499e+02
28              	3.00070676e+02
29              	3.00075311e+02
30              	3.00079217e+02
31              	3.00082921e+02
32              	3.00087233e+02
33              	3.00091542e+02
34              	3.00095936e+02
35              	3.00101015e+02
36              	3.00105795e+02
37              	3.00110797e+02
38              	3.00115118e+02
39              	3.00120049e+02
40              	3.00125487e+02
41              	3.00130511e+02
42              	3.00135500e+02
43              	3.00140491e+02
44              	3.00145271e+02
45              	3.00150217e+02
46              	3.00155300e+02
47              	3.00161705e+02
48              	3.00166355e+02
49              	3.00171584e+02
50              	3.00176827e+02
51              	3.00182494e+02
52              	3.00187162e+02
53              	3.00192735e+02
54              	3.00198074e+02
55              	3.00203094e+02
56              	3.00208623e+02
57              	3.00213809e+02
58              	3.00219182e+02
59              	3.00225688e+02
60              	3.00232683e+02
61              	3.00240720e+02
62              	3.00247150e+02
63              	3.00254983e+02
64              	3.00260613e+02
65              	3.00267790e+02
66              	3.00272637e+02
67              	3.00276879e+02
68              	3.00281460e+02
69              	3.00288712e+02
70              	3.00295799e+02
71              	3.00301458e+02
72              	3.00308136e+02
73              	3.00313708e+02
74              	3.00320668e+02
75              	3.00327941e+02
76              	3.00336103e+02
77              	3.00342371e+02
78              	3.00348481e+02
79              	3.00354238e+02
80              	3.00361516e+02
81              	3.00365491e+02
82              	3.00369322e+02
83              	3.00376751e+02
84              	3.00383535e+02
85              	3.00390515e+02
86              	3.00396252e+02
87              	3.00401270e+02
88              	3.00412517e+02
89              	3.00419835e+02
90              	3.00425584e+02
91              	3.00429715e+02
92              	3.00434328e+02
93              	3.00440994e+02
94              	3.00446487e+02
95              	3.00452094e+02
96              	3.00458815e+02
97              	3.00467467e+02
98              	3.00474864e+02
99              	3.00480005e+02
100             	3.00484402e+02
101             	3.00490126e+02
102             	3.00497044e+02
103             	3.00503403e+02
104             	3.00505391e+02
105             	3.00512571e+02
106             	3.00516077e+02
107             	3.00522223e+02
108             	3.00527923e+02
109             	3.00532031e+02
110             	3.00537722e+02
111             	3.00544678e+02
112             	3.00548986e+02
113             	3.00551599e+02
114             	3.00556129e+02
115             	3.00562429e+02
116             	3.00567695e+02
117             	3.00571610e+02
118             	3.00574046e+02
119             	3.00577955e+02
120             	3.00581394e+02
121             	3.00585448e+02
122             	3.00590856e+02
123             	3.00597215e+02
124             	3.00601956e+02
125             	3.00608272e+02
126             	3.00613823e+02
127             	3.00618560e+02
128             	3.00622487e+02
129             	3.00628541e+02
130             	3.00634127e+02
131             	3.00638266e+02
132             	3.00641367e+02
133             	3.00644438e+02
134             	3.00646961e+02
135             	3.00651415e+02
136             	3.00656187e+02
137             	3.00658017e+02
138             	3.00660513e+02
139             	3.00663439e+02
140             	3.00666471e+02
141             	3.00669822e+02
142             	3.00673845e+02
143             	3.00678673e+02
144             	3.00683432e+02
145             	3.00685309e+02
146             	3.00690993e+02
147             	3.00695484e+02
148             	3.00699127e+02
149             	3.00701830e+02
150             	3.00704476e+02
151             	3.00707242e+02
152             	3.00711271e+02
153             	3.00715989e+02
154             	3.00718172e+02
155             	3.00721020e+02
156             	3.00724689e+02
157             	3.00728482e+02
158             	3.00732509e+02
159             	3.00736882e+02
160             	3.00740511e+02
161             	3.00743382e+02
162             	3.00746457e+02
163             	3.00750984e+02
164             	3.00753736e+02
165             	3.00756077e+02
166             	3.00759847e+02
167             	3.00764574e+02
168             	3.00767217e+02
169             	3.00768585e+02
170             	3.00771167e+02
171             	3.00773485e+02
172             	3.00776519e+02
173             	3.00779977e+02
174             	3.00782915e+02
175             	3.00786337e+02
176             	3.00788666e+02
177             	3.00792929e+02
178             	3.00796750e+02
179             	3.00799298e+02
180             	3.00801568e+02
181             	3.00803323e+02
182             	3.00805379e+02
183             	3.00810705e+02
184             	3.00812275e+02
185             	3.00813875e+02
186             	3.00816273e+02
187             	3.00818252e+02
188             	3.00821122e+02
189             	3.00823905e+02
190             	3.00827231e+02
191             	3.00830047e+02
192             	3.00833172e+02
193             	3.00836283e+02
194             	3.00838515e+02
195             	3.00844018e+02
196             	3.00847152e+02
197             	3.00850057e+02
198             	3.00852980e+02
199             	3.00855411e+02
200             	3.00857920e+02
201             	3.00861612e+02
202             	3.00863060e+02
203             	3.00865607e+02
204             	3.00867053e+02
205             	3.00868766e+02
206             	3.00870919e+02
207             	3.00873437e+02
208             	3.00876362e+02
209             	3.00879390e+02
210             	3.00882344e+02
211             	3.00883701e+02
212             	3.00886991e+02
213             	3.00889331e+02
214             	3.00891310e+02
215             	3.00893411e+02
216             	3.00895667e+02
217             	3.00898256e+02
218             	3.00900533e+02
219             	3.00902792e+02
220             	3.00905024e+02
221             	3.00907186e+02
222             	3.00909425e+02
223             	3.00911662e+02
224             	3.00913596e+02
225             	3.00915471e+02
226             	3.00917130e+02
227             	3.00920213e+02
228             	3.00921512e+02
229             	3.00922941e+02
230             	3.00924706e+02
231             	3.00926609e+02
232             	3.00928963e+02
233             	3.00931741e+02
234             	3.00934743e+02
235             	3.00937468e+02
236             	3.00939717e+02
237             	3.00942285e+02
238             	3.00945461e+02
239             	3.00947894e+02
240             	3.00950288e+02
241             	3.00951755e+02
242             	3.00952937e+02
243             	3.00954015e+02
244             	3.00956007e+02
245             	3.00958595e+02
246             	3.00959446e+02
247             	3.00960958e+02
248             	3.00962814e+02
249             	3.00965040e+02
250             	3.00967572e+02
251             	3.00970235e+02
252             	3.00973150e+02
253             	3.00975673e+02
254             	3.00978184e+02
255             	3.00980260e+02
256             	3.00981356e+02
257             	3.00984334e+02
258             	3.00986091e+02
259             	3.00988112e+02
260             	3.00989898e+02
261             	3.00991441e+02
262             	3.00992792e+02
263             	3.00994233e+02
264             	3.00996023e+02
265             	3.00998854e+02
266             	3.00999348e+02
267             	3.01000402e+02
268             	3.01001869e+02
269             	3.01003511e+02
270             	3.01005375e+02
271             	3.01007329e+02
272             	3.01009081e+02
273             	3.01011396e+02
274             	3.01013720e+02
275             	3.01015712e+02
276             	3.01017980e+02
277             	3.01019325e+02
278             	3.01020801e+02
279             	3.01022856e+02
280             	3.01024624e+02
281             	3.01026233e+02
282             	3.01027825e+02
283             	3.01029313e+02
284             	3.01030955e+02
285             	3.01032277e+02
286             	3.01033932e+02
287             	3.01034850e+02
288             	3.01036087e+02
289             	3.01037437e+02
290             	3.01038945e+02
291             	3.01040531e+02
292             	3.01042209e+02
293             	3.01043866e+02
294             	3.01045558e+02
295             	3.01047262e+02
296             	3.01048637e+02
297             	3.01051201e+02
298             	3.01053203e+02
299             	3.01054939e+02
300             	3.01056463e+02
301             	3.01058256e+02
302             	3.01059868e+02
303             	3.01061224e+02
304             	3.01062329e+02
305             	3.01063342e+02
306             	3.01064325e+02
307             	3.01065603e+02
308             	3.01066911e+02
309             	3.01068250e+02
310             	3.01069006e+02
311             	3.01070001e+02
312             	3.01071247e+02
313             	3.01072620e+02
314             	3.01074127e+02
315             	3.01075633e+02
316             	3.01076802e+02
317             	3.01078666e+02
318             	3.01080052e+02
319             	3.01081692e+02
320             	3.01083413e+02
321             	3.01085002e+02
322             	3.01086349e+02
323             	3.01087455e+02
324             	3.01088552e+02
325             	3.01089598e+02
326             	3.01090578e+02
327             	3.01091554e+02
328             	3.01092503e+02
329             	3.01093469e+02
330             	3.01095168e+02
331             	3.01095908e+02
332             	3.01097076e+02
333             	3.01098202e+02
334             	3.01099374e+02
335             	3.01100676e+02
336             	3.01102021e+02
337             	3.01103391e+02
338             	3.01104786e+02
339             	3.01106202e+02
340             	3.01107633e+02
341             	3.01108549e+02
342             	3.01110226e+02
343             	3.01111599e+02
344             	3.01112679e+02
345             	3.01113662e+02
346             	3.01114478e+02
347             	3.01115298e+02
348             	3.01116181e+02
349             	3.01117178e+02
350             	3.01118501e+02
351             	3.01118941e+02
352             	3.01119748e+02
353             	3.01120725e+02
354             	3.01121832e+02
355             	3.01122944e+02
356             	3.01124099e+02
357             	3.01125019e+02
358             	3.01125851e+02
359             	3.01127032e+02
360             	3.01128227e+02
361             	3.01129224e+02
362             	3.01130048e+02
363             	3.01131056e+02
364             	3.01131998e+02
365             	3.01133086e+02
366             	3.01133633e+02
367             	3.01134381e+02
368             	3.01135280e+02
369             	3.01136399e+02
370             	3.01137638e+02
371             	3.01138956e+02
372             	3.01140254e+02
373             	3.01141714e+02
374             	3.01143196e+02
375             	3.01143788e+02
376             	3.01145390e+02
377             	3.01146658e+02
378             	3.01147685e+02
379             	3.01148519e+02
380             	3.01149261e+02
381             	3.01149961e+02
382             	3.01150615e+02
383             	3.01151395e+02
384             	3.01152030e+02
385             	3.01152644e+02
386             	3.01153236e+02
387             	3.01153696e+02
388             	3.01154462e+02
389             	3.01155182e+02
390             	3.01155653e+02
391             	3.01156257e+02
392             	3.01156995e+02
393             	3.01157733e+02
394             	3.01158451e+02
395             	3.01159231e+02
396             	3.01160080e+02
397             	3.01161018e+02
398             	3.01162025e+02
399             	3.01163129e+02
400             	3.01164333e+02
401             	3.01165558e+02
402             	3.01166813e+02
403             	3.01167808e+02
404             	3.01168526e+02
405             	3.01169722e+02
406             	3.01170621e+02
407             	3.01171426e+02
408             	3.01172122e+02
409             	3.01172769e+02
410             	3.01173287e+02
411             	3.01173784e+02
412             	3.01174269e+02
413             	3.01174816e+02
414             	3.01175474e+02
415             	3.01175946e+02
416             	3.01176566e+02
417             	3.01177365e+02
418             	3.01177877e+02
419             	3.01178509e+02
420             	3.01179160e+02
421             	3.01179943e+02
422             	3.01180825e+02
423             	3.01181820e+02
424             	3.01182887e+02
425             	3.01184058e+02
426             	3.01185232e+02
427             	3.01186403e+02
428             	3.01187523e+02
429             	3.01187891e+02
430             	3.01189168e+02
431             	3.01190112e+02
432             	3.01190866e+02
433             	3.01191289e+02
434             	3.01191627e+02
435             	3.01191903e+02
436             	3.01192455e+02
437             	3.01193469e+02
438             	3.01193423e+02
439             	3.01193480e+02
440             	3.01193984e+02
441             	3.01194396e+02
442             	3.01194845e+02
443             	3.01195539e+02
444             	3.01196304e+02
445             	3.01196792e+02
446             	3.01197978e+02
447             	3.01198790e+02
448             	3.01199698e+02
449             	3.01200298e+02
450             	3.01201139e+02
451             	3.01201792e+02
452             	3.01202362e+02
453             	3.01202771e+02
454             	3.01203123e+02
455             	3.01204044e+02
456             	3.01204105e+02
457             	3.01204317e+02
458             	3.01204804e+02
459             	3.01205511e+02
460             	3.01206003e+02
461             	3.01206622e+02
462             	3.01207301e+02
463             	3.01207927e+02
464             	3.01208547e+02
465             	3.01209263e+02
466             	3.01210142e+02
467             	3.01210988e+02
468             	3.01211868e+02
469             	3.01212915e+02
470             	3.01213981e+02
471             	3.01214790e+02
472             	3.01215917e+02
473             	3.01216880e+02
474             	3.01217774e+02
475             	3.01218503e+02
476             	3.01219313e+02
477             	3.01219958e+02
478             	3.01220406e+02
479             	3.01220789e+02
480             	3.01221090e+02
481             	3.01221309e+02
482             	3.01221617e+02
483             	3.01221724e+02
484             	3.01221700e+02
485             	3.01221619e+02
486             	3.01221579e+02
487             	3.01221533e+02
488             	3.01221471e+02
489             	3.01221408e+02
490             	3.01221383e+02
491             	3.01221401e+02
492             	3.01221495e+02
493             	3.01221586e+02
494             	3.01221776e+02
495             	3.01221955e+02
496             	3.01222217e+02
497             	3.01222579e+02
498             	3.01223066e+02
499             	3.01223614e+02
500             	3.01224275e+02
501             	3.01225065e+02
502             	3.01225700e+02
503             	3.01226392e+02
504             	3.01227122e+02
505             	3.01227855e+02
506             	3.01228646e+02
507             	3.01229480e+02
508             	3.01230239e+02
509             	3.01230859e+02
510             	3.01231515e+02
511             	3.01232294e+02
512             	3.01232967e+02
513             	3.01233674e+02
514             	3.01234375e+02
515             	3.01235101e+02
516             	3.01235835e+02
517             	3.01236560e+02
518             	3.01237260e+02
519             	3.01237899e+02
520             	3.01238478e+02
521             	3.01238960e+02
522             	3.01239366e+02
523             	3.01239689e+02
524             	3.01239906e+02
525             	3.01239951e+02
526             	3.01239829e+02
527             	3.01239667e+02
528             	3.01239344e+02
529             	3.01239069e+02
530             	3.01239004e+02
531             	3.01238703e+02
532             	3.01238357e+02
533             	3.01238173e+02
534             	3.01238136e+02
535             	3.01238323e+02
536             	3.01238366e+02
537             	3.01238621e+02
538             	3.01239002e+02
539             	3.01239422e+02
540             	3.01239894e+02
541             	3.01240456e+02
542             	3.01241060e+02
543             	3.01241745e+02
544             	3.01242341e+02
545             	3.01242941e+02
546             	3.01243516e+02
547             	3.01244010e+02
548             	3.01244532e+02
549             	3.01245148e+02
550             	3.01245774e+02
551             	3.01246333e+02
552             	3.01246869e+02
553             	3.01247378e+02
554             	3.01247834e+02
555             	3.01248186e+02
556             	3.01248568e+02
557             	3.01248968e+02
558             	3.01249358e+02
559             	3.01249730e+02
560             	3.01250152e+02
561             	3.01250581e+02
562             	3.01251075e+02
563             	3.01251526e+02
564             	3.01251964e+02
565             	3.01252400e+02
566             	3.01252832e+02
567             	3.01253267e+02
568             	3.01253490e+02
569             	3.01253691e+02
570             	3.01253834e+02
571             	3.01253798e+02
572             	3.01253699e+02
573             	3.01253486e+02
574             	3.01253182e+02
575             	3.01253206e+02
576             	3.01252829e+02
577             	3.01252443e+02
578             	3.01252210e+02
579             	3.01252013e+02
580             	3.01251916e+02
581             	3.01251974e+02
582             	3.01252242e+02
583             	3.01252446e+02
584             	3.01252788e+02
585             	3.01253249e+02
586             	3.01253762e+02
587             	3.01254365e+02
588             	3.01255046e+02
589             	3.01255779e+02
590             	3.01256574e+02
591             	3.01257291e+02
592             	3.01257935e+02
593             	3.01258599e+02
594             	3.01259217e+02
595             	3.01259805e+02
596             	3.01260566e+02
597             	3.01261068e+02
598             	3.01261651e+02
599             	3.01262204e+02
600             	3.01262747e+02
601             	3.01263091e+02
602             	3.01263589e+02
603             	3.01264045e+02
604             	3.01264434e+02
605             	3.01264861e+02
606             	3.01265188e+02
607             	3.01265531e+02
608             	3.01265759e+02
609             	3.01265895e+02
610             	3.01266029e+02
611             	3.01266164e+02
612             	3.01266308e+02
613             	3.01266285e+02
614             	3.01266037e+02
615             	3.01265848e+02
616             	3.01265432e+02
617             	3.01265163e+02
618             	3.01264750e+02
619             	3.01264368e+02
620             	3.01264029e+02
621             	3.01263708e+02
622             	3.01263300e+02
623             	3.01262981e+02
624             	3.01262763e+02
625             	3.01262672e+02
626             	3.01262682e+02
627             	3.01262807e+02
628             	3.01263033e+02
629             	3.01263324e+02
630             	3.01263705e+02
631             	3.01264170e+02
632             	3.01264666e+02
633             	3.01265199e+02
634             	3.01265771e+02
635             	3.01266383e+02
636             	3.01267042e+02
637             	3.01267785e+02
638             	3.01268542e+02
639             	3.01269379e+02
640             	3.01270057e+02
641             	3.01270811e+02
642             	3.01271404e+02
643             	3.01272142e+02
644             	3.01272811e+02
645             	3.01273351e+02
646             	3.01273850e+02
647             	3.01274274e+02
648             	3.01274657e+02
649             	3.01274993e+02
650             	3.01275276e+02
651             	3.01275505e+02
652             	3.01275633e+02
653             	3.01275661e+02
654             	3.01275662e+02
655             	3.01275917e+02
656             	3.01275719e+02
657             	3.01275483e+02
658             	3.01275206e+02
659             	3.01274897e+02
660             	3.01274619e+02
661             	3.01274168e+02
662             	3.01273674e+02
663             	3.01273329e+02
664             	3.01273010e+02
665             	3.01272677e+02
666             	3.01272280e+02
667             	3.01271968e+02
668             	3.01271759e+02
669             	3.01271654e+02
670             	3.01271680e+02
671             	3.01271828e+02
672             	3.01272100e+02
673             	3.01272484e+02
674             	3.01272951e+02
675             	3.01273464e+02
676             	3.01274016e+02
677             	3.01274575e+02
678             	3.01275146e+02
679             	3.01275733e+02
680             	3.01276339e+02
681             	3.01276946e+02
682             	3.01277551e+02
683             	3.01278252e+02
684             	3.01278796e+02
685             	3.01279355e+02
686             	3.01279768e+02
687             	3.01280285e+02
688             	3.01280800e+02
689             	3.01281208e+02
690             	3.01281594e+02
691             	3.01281936e+02
692             	3.01282278e+02
693             	3.01282612e+02
694             	3.01282908e+02
695             	3.01283193e+02
696             	3.01283476e+02
697             	3.01283671e+02
698             	3.01283806e+02
699             	3.01283904e+02
700             	3.01283957e+02
701             	3.01284120e+02
702             	3.01283830e+02
703             	3.01283672e+02
704             	3.01283454e+02
705             	3.01283193e+02
706             	3.01282862e+02
707             	3.01282503e+02
708             	3.01282115e+02
709             	3.01281715e+02
710             	3.01281368e+02
711             	3.01280876e+02
712             	3.01280490e+02
713             	3.01280023e+02
714             	3.01279747e+02
715             	3.01279665e+02
716             	3.01279723e+02
717             	3.01279887e+02
718             	3.01280177e+02
719             	3.01280553e+02
720             	3.01280998e+02
721             	3.01281486e+02
722             	3.01282005e+02
723             	3.01282539e+02
724             	3.01283101e+02
725             	3.01283702e+02
726             	3.01284337e+02
727             	3.01285030e+02
728             	3.01285756e+02
729             	3.01286251e+02
730             	3.01286810e+02
731             	3.01287356e+02
732             	3.01287813e+02
733             	3.01288192e+02
734             	3.01288562e+02
735             	3.01288946e+02
736             	3.01289347e+02
737             	3.01289681e+02
738             	3.01289921e+02
739             	3.01290193e+02
740             	3.01290365e+02
741             	3.01290469e+02
742             	3.01290497e+02
743             	3.01290503e+02
744             	3.01290558e+02
745             	3.01290533e+02
746             	3.01291086e+02
747             	3.01290763e+02
748             	3.01290613e+02
749             	3.01290495e+02
750             	3.01290410e+02
751             	3.01290330e+02
752             	3.01290230e+02
753             	3.01290095e+02
754             	3.01289941e+02
755             	3.01289758e+02
756             	3.01289538e+02
757             	3.01289505e+02
758             	3.01289378e+02
759             	3.01289343e+02
760             	3.01289418e+02
761             	3.01289560e+02
762             	3.01289763e+02
763             	3.01290037e+02
764             	3.01290366e+02
765             	3.01290711e+02
766             	3.01291051e+02
767             	3.01291360e+02
768             	3.01291640e+02
769             	3.01291893e+02
770             	3.01292111e+02
771             	3.01292302e+02
772             	3.01292501e+02
773             	3.01292728e+02
774             	3.01293032e+02
775             	3.01293500e+02
776             	3.01293797e+02
777             	3.01294146e+02
778             	3.01294603e+02
779             	3.01295118e+02
780             	3.01295584e+02
781             	3.01296167e+02
782             	3.01296781e+02
783             	3.01297407e+02
784             	3.01298033e+02
785             	3.01298676e+02
786             	3.01299329e+02
787             	3.01299941e+02
788             	3.01300532e+02
789             	3.01301018e+02
790             	3.01301411e+02
791             	3.01301701e+02
792             	3.01301888e+02
793             	3.01301966e+02
794             	3.01301861e+02
795             	3.01301698e+02
796             	3.01301195e+02
797             	3.01300744e+02
798             	3.01300339e+02
799             	3.01299782e+02
800             	3.01299176e+02
801             	3.01298624e+02
802             	3.01298147e+02
803             	3.01297742e+02
804             	3.01297417e+02
805             	3.01297106e+02
806             	3.01296950e+02
807             	3.01296924e+02
808             	3.01297022e+02
809             	3.01297249e+02
810             	3.01297626e+02
811             	3.01298126e+02
812             	3.01298687e+02
813             	3.01299290e+02
814             	3.01299912e+02
815             	3.01300533e+02
816             	3.01301140e+02
817             	3.01301775e+02
818             	3.01302346e+02
819             	3.01302929e+02
820             	3.01303520e+02
821             	3.01304243e+02
822             	3.01304758e+02
823             	3.01305327e+02
824             	3.01305816e+02
825             	3.01306187e+02
826             	3.01306452e+02
827             	3.01306752e+02
828             	3.01307046e+02
829             	3.01307289e+02
830             	3.01307501e+02
831             	3.01307654e+02
832             	3.01307777e+02
833             	3.01307798e+02
834             	3.01307803e+02
835             	3.01307799e+02
836             	3.01307962e+02
837             	3.01308117e+02
838             	3.01307713e+02
839             	3.01307440e+02
840             	3.01306956e+02
841             	3.01306382e+02
842             	3.01305949e+02
843             	3.01305550e+02
844             	3.01305167e+02
845             	3.01304805e+02
846             	3.01304399e+02
847             	3.01303972e+02
848             	3.01303582e+02
849             	3.01303323e+02
850             	3.01303170e+02
851             	3.01303191e+02
852             	3.01303356e+02
853             	3.01303569e+02
854             	3.01303864e+02
855             	3.01304222e+02
856             	3.01304583e+02
857             	3.01304958e+02
858             	3.01305372e+02
859             	3.01305821e+02
860             	3.01306372e+02
861             	3.01306939e+02
862             	3.01307284e+02
863             	3.01307651e+02
864             	3.01308067e+02
865             	3.01308581e+02
866             	3.01308908e+02
867             	3.01309106e+02
868             	3.01309560e+02
869             	3.01309925e+02
870             	3.01310176e+02
871             	3.01310290e+02
872             	3.01310450e+02
873             	3.01310602e+02
874             	3.01310731e+02
875             	3.01310822e+02
876             	3.01310915e+02
877             	3.01311015e+02
878             	3.01311146e+02
879             	3.01311239e+02
880             	3.01311255e+02
881             	3.01311259e+02
882             	3.01311190e+02
883             	3.01311021e+02
884             	3.01310757e+02
885             	3.01310359e+02
886             	3.01309897e+02
887             	3.01309367e+02
888             	3.01308684e+02
889             	3.01308011e+02
890             	3.01307355e+02
891             	3.01307440e+02
892             	3.01306865e+02
893             	3.01306402e+02
894             	3.01306203e+02
895             	3.01306137e+02
896             	3.01306173e+02
897             	3.01306317e+02
898             	3.01306666e+02
899             	3.01307005e+02
900             	3.01307370e+02
901             	3.01307770e+02
902             	3.01308220e+02
903             	3.01308728e+02
904             	3.01309291e+02
905             	3.01309902e+02
906             	3.01310516e+02
907             	3.01311221e+02
908             	3.01311699e+02
909             	3.01312173e+02
910             	3.01312636e+02
911             	3.01313071e+02
912             	3.01313481e+02
913             	3.01313799e+02
914             	3.01314007e+02
915             	3.01314203e+02
916             	3.01314437e+02
917             	3.01314627e+02
918             	3.01314782e+02
919             	3.01314915e+02
920             	3.01315039e+02
921             	3.01315153e+02
922             	3.01315177e+02
923             	3.01315194e+02
924             	3.01315118e+02
925             	3.01315016e+02
926             	3.01314889e+02
927             	3.01314811e+02
928             	3.01314368e+02
929             	3.01313979e+02
930             	3.01313537e+02
931             	3.01313057e+02
932             	3.01312494e+02
933             	3.01311924e+02