# Region        : cellZone pcb
# Cells         : 381
# Volume        : 5.66775488e-01
# Time          	volAverage(T)
1               	3.00027994e+02
2               	3.00081214e+02
3               	3.00155739e+02
4               	3.00250231e+02
5               	3.00355817e+02
6               	3.00473338e+02
7               	3.00604431e+02
8               	3.00749906e+02
9               	3.00910095e+02
10              	3.01085845e+02
11              	3.01275091e+02
12              	3.01478210e+02
13              	3.01693295e+02
14              	3.01919337e+02
15              	3.02156855e+02
16              	3.02408035e+02
17              	3.02668001e+02
18              	3.02934265e+02
19              	3.03209191e+02
20              	3.03485860e+02
21              	3.03764489e+02
22              	3.04050462e+02
23              	3.04330864e+02
24              	3.04622999e+02
25              	3.04929775e+02
26              	3.05217424e+02
27              	3.05496296e+02
28              	3.05768613e+02
29              	3.06053725e+02
30              	3.06346343e+02
31              	3.06639220e+02
32              	3.06938595e+02
33              	3.07250597e+02
34              	3.07567439e+02
35              	3.07884333e+02
36              	3.08202180e+02
37              	3.08523075e+02
38              	3.08835873e+02
39              	3.09150630e+02
40              	3.09449745e+02
41              	3.09749295e+02
42              	3.10043668e+02
43              	3.10347909e+02
44              	3.10652328e+02
45              	3.10962018e+02
46              	3.11273000e+02
47              	3.11588473e+02
48              	3.11911268e+02
49              	3.12226900e+02
50              	3.12535550e+02
51              	3.12850817e+02
52              	3.13170168e+02
53              	3.13491113e+02
54              	3.13806572e+02
55              	3.14122091e+02
56              	3.14438035e+02
57              	3.14751443e+02
58              	3.15065562e+02
59              	3.15365024e+02
60              	3.15667101e+02
61              	3.15959122e+02
62              	3.16256646e+02
63              	3.16552046e+02
64              	3.16845096e+02
65              	3.17145048e+02
66              	3.17443800e+02
67              	3.17752747e+02
68              	3.18061104e+02
69              	3.18364519e+02
70              	3.18666384e+02
71              	3.18966762e+02
72              	3.19257762e+02
73              	3.19548304e+02
74              	3.19825869e+02
75              	3.20087935e+02
76              	3.20344797e+02
77              	3.20602583e+02
78              	3.20868176e+02
79              	3.21136498e+02
80              	3.21407705e+02
81              	3.21675509e+02
82              	3.21939158e+02
83              	3.22209626e+02
84              	3.22481163e+02
85              	3.22750101e+02
86              	3.23017372e+02
87              	3.23279913e+02
88              	3.23536014e+02
89              	3.23796302e+02
90              	3.24046698e+02
91              	3.24300879e+02
92              	3.24547272e+02
93              	3.24780275e+02
94              	3.25016465e+02
95              	3.25244242e+02
96              	3.25466640e+02
97              	3.25698407e+02
98              	3.25935915e+02
99              	3.26170585e+02
100             	3.26397077e+02
101             	3.26623193e+02
102             	3.26851901e+02
103             	3.27076721e+02
104             	3.27294820e+02
105             	3.27513058e+02
106             	3.27721523e+02
107             	3.27927054e+02
108             	3.28125600e+02
109             	3.28322370e+02
110             	3.28523372e+02
111             	3.28724453e+02
112             	3.28919242e+02
113             	3.29115316e+02
114             	3.29313697e+02
115             	3.29505822e+02
116             	3.29698277e+02
117             	3.29892876e+02
118             	3.30081151e+02
119             	3.30273100e+02
120             	3.30453028e+02
121             	3.30630753e+02
122             	3.30811292e+02
123             	3.30993468e+02
124             	3.31173367e+02
125             	3.31352987e+02
126             	3.31528713e+02
127             	3.31697423e+02
128             	3.31865953e+02
129             	3.32026565e+02
130             	3.32179758e+02
131             	3.32324009e+02
132             	3.32463616e+02
133             	3.32609659e+02
134             	3.32755304e+02
135             	3.32905667e+02
136             	3.33060082e+02
137             	3.33216103e+02
138             	3.33377440e+02
139             	3.33539757e+02
140             	3.33698918e+02
141             	3.33855494e+02
142             	3.34003289e+02
143             	3.34147749e+02
144             	3.34283896e+02
145             	3.34415413e+02
146             	3.34540910e+02
147             	3.34663743e+02
148             	3.34784968e+02
149             	3.34906773e+02
150             	3.35029066e+02
151             	3.35152021e+02
152             	3.35276787e+02
153             	3.35402645e+02
154             	3.35526787e+02
155             	3.35652027e+02
156             	3.35781311e+02
157             	3.35911246e+02
158             	3.36039686e+02
159             	3.36163664e+02
160             	3.36286226e+02
161             	3.36405368e+02
162             	3.36519065e+02
163             	3.36629170e+02
164             	3.36736784e+02
165             	3.36843682e+02
166             	3.36948845e+02
167             	3.37052657e+02
168             	3.37155674e+02
169             	3.37260994e+02
170             	3.37362619e+02
171             	3.37462495e+02
172             	3.37561968e+02
173             	3.37661287e+02
174             	3.37760743e+02
175             	3.37860986e+02
176             	3.37960708e+02
177             	3.38059647e+02
178             	3.38158413e+02
179             	3.38257390e+02
180             	3.38356396e+02
181             	3.38455017e+02
182             	3.38552299e+02
183             	3.38648003e+02
184             	3.38742367e+02
185             	3.38835288e+02
186             	3.38926542e+02
187             	3.39015944e+02
188             	3.39103609e+02
189             	3.39189707e+02
190             	3.39274496e+02
191             	3.39358261e+02
192             	3.39441268e+02
193             	3.39524715e+02
194             	3.39607756e+02
195             	3.39690457e+02
196             	3.39773124e+02
197             	3.39855611e+02
198             	3.39937590e+02
199             	3.40018769e+02
200             	3.40099317e+02
201             	3.40179126e+02
202             	3.40258776e+02
203             	3.40337764e+02
204             	3.40415726e+02
205             	3.40492745e+02
206             	3.40568981e+02
207             	3.40644254e+02
208             	3.40718560e+02
209             	3.40791549e+02
210             	3.40862882e+02
211             	3.40932712e+02
212             	3.41001230e+02
213             	3.41068457e+02
214             	3.41134173e+02
215             	3.41198874e+02
216             	3.41262578e+02
217             	3.41325264e+02
218             	3.41387622e+02
219             	3.41450035e+02
220             	3.41512575e+02
221             	3.41575370e+02
222             	3.41639184e+02
223             	3.41702885e+02
224             	3.41765867e+02
225             	3.41828618e+02
226             	3.41891006e+02
227             	3.41953028e+02
228             	3.42014696e+02
229             	3.42075738e+02
230             	3.42136598e+02
231             	3.42196840e+02
232             	3.42255685e+02
233             	3.42313540e+02
234             	3.42370469e+02
235             	3.42426295e+02
236             	3.42481316e+02
237             	3.42535399e+02
238             	3.42588766e+02
239             	3.42641159e+02
240             	3.42692866e+02
241             	3.42743975e+02
242             	3.42794276e+02
243             	3.42844244e+02
244             	3.42893890e+02
245             	3.42943520e+02
246             	3.42993246e+02
247             	3.43042764e+02
248             	3.43092164e+02
249             	3.43142063e+02
250             	3.43191963e+02
251             	3.43241484e+02
252             	3.43291039e+02
253             	3.43339972e+02
254             	3.43387932e+02
255             	3.43435189e+02
256             	3.43481329e+02
257             	3.43526569e+02
258             	3.43570771e+02
259             	3.43613940e+02
260             	3.43656693e+02
261             	3.43699167e+02
262             	3.43740896e+02
263             	3.43782182e+02
264             	3.43823564e+02
265             	3.43864902e+02
266             	3.43906651e+02
267             	3.43948499e+02
268             	3.43989867e+02
269             	3.44030987e+02
270             	3.44071744e+02
271             	3.44111673e+02
272             	3.44150968e+02
273             	3.44189318e+02
274             	3.44226848e+02
275             	3.44263252e+02
276             	3.44299162e+02
277             	3.44334562e+02
278             	3.44369568e+02
279             	3.44404253e+02
280             	3.44438751e+02
281             	3.44473291e+02
282             	3.44507850e+02
283             	3.44542234e+02
284             	3.44576337e+02
285             	3.44610308e+02
286             	3.44644575e+02
287             	3.44678781e+02
288             	3.44712673e+02
289             	3.44746422e+02
290             	3.44780234e+02
291             	3.44813457e+02
292             	3.44845953e+02
293             	3.44877903e+02
294             	3.44909268e+02
295             	3.44939974e+02
296             	3.44970068e+02
297             	3.44999458e+02
298             	3.45028154e+02
299             	3.45056356e+02
300             	3.45084105e+02
301             	3.45111461e+02
302             	3.45138504e+02
303             	3.45165257e+02
304             	3.45191777e+02
305             	3.45218122e+02
306             	3.45244256e+02
307             	3.45270208e+02
308             	3.45296029e+02
309             	3.45321713e+02
310             	3.45347346e+02
311             	3.45373051e+02
312             	3.45398791e+02
313             	3.45424474e+02
314             	3.45450065e+02
315             	3.45475514e+02
316             	3.45500841e+02
317             	3.45525678e+02
318             	3.45550292e+02
319             	3.45574750e+02
320             	3.45599084e+02
321             	3.45623386e+02
322             	3.45647528e+02
323             	3.45671349e+02
324             	3.45694849e+02
325             	3.45717975e+02
326             	3.45740879e+02
327             	3.45763466e+02
328             	3.45786052e+02
329             	3.45808688e+02
330             	3.45831214e+02
331             	3.45853643e+02
332             	3.45875969e+02
333             	3.45898154e+02
334             	3.45920173e+02
335             	3.45942001e+02
336             	3.45963641e+02
337             	3.45985065e+02
338             	3.46006222e+02
339             	3.46027072e+02
340             	3.46047799e+02
341             	3.46068079e+02
342             	3.46087861e+02
343             	3.46107338e+02
344             	3.46126471e+02
345             	3.46145197e+02
346             	3.46163484e+02
347             	3.46181348e+02
348             	3.46199015e+02
349             	3.46216609e+02
350             	3.46234072e+02
351             	3.46251501e+02
352             	3.46268959e+02
353             	3.46286495e+02
354             	3.46304170e+02
355             	3.46321958e+02
356             	3.46339728e+02
357             	3.46357540e+02
358             	3.46375388e+02
359             	3.46393339e+02
360             	3.46411408e+02
361             	3.46429240e+02
362             	3.46446841e+02
363             	3.46464281e+02
364             	3.46481531e+02
365             	3.46498555e+02
366             	3.46515319e+02
367             	3.46531792e+02
368             	3.46547952e+02
369             	3.46563743e+02
370             	3.46579216e+02
371             	3.46594450e+02
372             	3.46609444e+02
373             	3.46624150e+02
374             	3.46638557e+02
375             	3.46652731e+02
376             	3.46666723e+02
377             	3.46680429e+02
378             	3.46693867e+02
379             	3.46707140e+02
380             	3.46720283e+02
381             	3.46733249e+02
382             	3.46746016e+02
383             	3.46758654e+02
384             	3.46771198e+02
385             	3.46783591e+02
386             	3.46795810e+02
387             	3.46807832e+02
388             	3.46819619e+02
389             	3.46831227e+02
390             	3.46842704e+02
391             	3.46854114e+02
392             	3.46865515e+02
393             	3.46876964e+02
394             	3.46888380e+02
395             	3.46899770e+02
396             	3.46911149e+02
397             	3.46922534e+02
398             	3.46933947e+02
399             	3.46945447e+02
400             	3.46957106e+02
401             	3.46968696e+02
402             	3.46980335e+02
403             	3.46992042e+02
404             	3.47003770e+02
405             	3.47015637e+02
406             	3.47027670e+02
407             	3.47039784e+02
408             	3.47051930e+02
409             	3.47064063e+02
410             	3.47076084e+02
411             	3.47087924e+02
412             	3.47099526e+02
413             	3.47110886e+02
414             	3.47122014e+02
415             	3.47132933e+02
416             	3.47143666e+02
417             	3.47154223e+02
418             	3.47164558e+02
419             	3.47174598e+02
420             	3.47184373e+02
421             	3.47193893e+02
422             	3.47203115e+02
423             	3.47212090e+02
424             	3.47220856e+02
425             	3.47229451e+02
426             	3.47237941e+02
427             	3.47246325e+02
428             	3.47254628e+02
429             	3.47262890e+02
430             	3.47271143e+02
431             	3.47279470e+02
432             	3.47287897e+02
433             	3.47296386e+02
434             	3.47304918e+02
435             	3.47313457e+02
436             	3.47322043e+02
437             	3.47330727e+02
438             	3.47339481e+02
439             	3.47348304e+02
440             	3.47357188e+02
441             	3.47366300e+02
442             	3.47375434e+02
443             	3.47384589e+02
444             	3.47393799e+02
445             	3.47403026e+02
446             	3.47412213e+02
447             	3.47421184e+02
448             	3.47430059e+02
449             	3.47438873e+02
450             	3.47447526e+02
451             	3.47456034e+02
452             	3.47464429e+02
453             	3.47472748e+02
454             	3.47481014e+02
455             	3.47489190e+02
456             	3.47497281e+02
457             	3.47505192e+02
458             	3.47512799e+02
459             	3.47520108e+02
460             	3.47527107e+02
461             	3.47533761e+02
462             	3.47540128e+02
463             	3.47546229e+02
464             	3.47552100e+02
465             	3.47557806e+02
466             	3.47563307e+02
467             	3.47568567e+02
468             	3.47573617e+02
469             	3.47578505e+02
470             	3.47583280e+02
471             	3.47587941e+02
472             	3.47592594e+02
473             	3.47597403e+02
474             	3.47602342e+02
475             	3.47607383e+02
476             	3.47612546e+02
477             	3.47617893e+02
478             	3.47623508e+02
479             	3.47629500e+02
480             	3.47635708e+02
481             	3.47642128e+02
482             	3.47648668e+02
483             	3.47655201e+02
484             	3.47661622e+02
485             	3.47667980e+02
486             	3.47674263e+02
487             	3.47680434e+02
488             	3.47686496e+02
489             	3.47692453e+02
490             	3.47698284e+02
491             	3.47703910e+02
492             	3.47709360e+02
493             	3.47714678e+02
494             	3.47719857e+02
495             	3.47724831e+02
496             	3.47729620e+02
497             	3.47734168e+02
498             	3.47738659e+02
499             	3.47742905e+02
500             	3.47746888e+02
501             	3.47750731e+02
502             	3.47754476e+02
503             	3.47758160e+02
504             	3.47761822e+02
505             	3.47765472e+02
506             	3.47769044e+02
507             	3.47772562e+02
508             	3.47776053e+02
509             	3.47779602e+02
510             	3.47783300e+02
511             	3.47787244e+02
512             	3.47791410e+02
513             	3.47795808e+02
514             	3.47800214e+02
515             	3.47804793e+02
516             	3.47809616e+02
517             	3.47814789e+02
518             	3.47820298e+02
519             	3.47826021e+02
520             	3.47831866e+02
521             	3.47837767e+02
522             	3.47843644e+02
523             	3.47849321e+02
524             	3.47854600e+02
525             	3.47859556e+02
526             	3.47864270e+02
527             	3.47868779e+02
528             	3.47873060e+02
529             	3.47876963e+02
530             	3.47880592e+02
531             	3.47884111e+02
532             	3.47887467e+02
533             	3.47890635e+02
534             	3.47893827e+02
535             	3.47896897e+02
536             	3.47899810e+02
537             	3.47902624e+02
538             	3.47905347e+02
539             	3.47908023e+02
540             	3.47910729e+02
541             	3.47913470e+02
542             	3.47916253e+02
543             	3.47919060e+02
544             	3.47921881e+02
545             	3.47924703e+02
546             	3.47927583e+02
547             	3.47930495e+02
548             	3.47933465e+02
549             	3.47936541e+02
550             	3.47939789e+02
551             	3.47943288e+02
552             	3.47946835e+02
553             	3.47950456e+02
554             	3.47954182e+02
555             	3.47957968e+02
556             	3.47961776e+02
557             	3.47965576e+02
558             	3.47969358e+02
559             	3.47973027e+02
560             	3.47976627e+02
561             	3.47980233e+02
562             	3.47983812e+02
563             	3.47987446e+02
564             	3.47991037e+02
565             	3.47994445e+02
566             	3.47997641e+02
567             	3.48000633e+02
568             	3.48003420e+02
569             	3.48005984e+02
570             	3.48008314e+02
571             	3.48010491e+02
572             	3.48012566e+02
573             	3.48014479e+02
574             	3.48016252e+02
575             	3.48017893e+02
576             	3.48019367e+02
577             	3.48020785e+02
578             	3.48022208e+02
579             	3.48023658e+02
580             	3.48025162e+02
581             	3.48026758e+02
582             	3.48028495e+02
583             	3.48030363e+02
584             	3.48032384e+02
585             	3.48034569e+02
586             	3.48036912e+02
587             	3.48039411e+02
588             	3.48042105e+02
589             	3.48044921e+02
590             	3.48047825e+02
591             	3.48050852e+02
592             	3.48054005e+02
593             	3.48057327e+02
594             	3.48060736e+02
595             	3.48064227e+02
596             	3.48067771e+02
597             	3.48071319e+02
598             	3.48074834e+02
599             	3.48078290e+02
600             	3.48081523e+02
601             	3.48084673e+02
602             	3.48087814e+02
603             	3.48090860e+02
604             	3.48093840e+02
605             	3.48096801e+02
606             	3.48099758e+02
607             	3.48102702e+02
608             	3.48105630e+02
609             	3.48108497e+02
610             	3.48111207e+02
611             	3.48113822e+02
612             	3.48116247e+02
613             	3.48118419e+02
614             	3.48120380e+02
615             	3.48122114e+02
616             	3.48123625e+02
617             	3.48124935e+02
618             	3.48126067e+02
619             	3.48127049e+02
620             	3.48127916e+02
621             	3.48128717e+02
622             	3.48129508e+02
623             	3.48130350e+02
624             	3.48131310e+02
625             	3.48132445e+02
626             	3.48133755e+02
627             	3.48135192e+02
628             	3.48136771e+02
629             	3.48138489e+02
630             	3.48140366e+02
631             	3.48142402e+02
632             	3.48144604e+02
633             	3.48146965e+02
634             	3.48149513e+02
635             	3.48152246e+02
636             	3.48155084e+02
637             	3.48157971e+02
638             	3.48160882e+02
639             	3.48163762e+02
640             	3.48166541e+02
641             	3.48169200e+02
642             	3.48171719e+02
643             	3.48174086e+02
644             	3.48176283e+02
645             	3.48178318e+02
646             	3.48180213e+02
647             	3.48181996e+02
648             	3.48183691e+02
649             	3.48185323e+02
650             	3.48186835e+02
651             	3.48188270e+02
652             	3.48189628e+02
653             	3.48190895e+02
654             	3.48192096e+02
655             	3.48193234e+02
656             	3.48194371e+02
657             	3.48195442e+02
658             	3.48196420e+02
659             	3.48197353e+02
660             	3.48198235e+02
661             	3.48199051e+02
662             	3.48199762e+02
663             	3.48200380e+02
664             	3.48200920e+02
665             	3.48201415e+02
666             	3.48201920e+02
667             	3.48202511e+02
668             	3.48203108e+02
669             	3.48203768e+02
670             	3.48204525e+02
671             	3.48205351e+02
672             	3.48206251e+02
673             	3.48207276e+02
674             	3.48208545e+02
675             	3.48210041e+02
676             	3.48211708e+02
677             	3.48213528e+02
678             	3.48215370e+02
679             	3.48217338e+02
680             	3.48219434e+02
681             	3.48221582e+02
682             	3.48223768e+02
683             	3.48225967e+02
684             	3.48228170e+02
685             	3.48230375e+02
686             	3.48232542e+02
687             	3.48234639e+02
688             	3.48236655e+02
689             	3.48238548e+02
690             	3.48240237e+02
691             	3.48241655e+02
692             	3.48242786e+02
693             	3.48243664e+02
694             	3.48244335e+02
695             	3.48244900e+02
696             	3.48245383e+02
697             	3.48245834e+02
698             	3.48246226e+02
699             	3.48246529e+02
700             	3.48246770e+02
701             	3.48246983e+02
702             	3.48247197e+02
703             	3.48247434e+02
704             	3.48247733e+02
705             	3.48248124e+02
706             	3.48248579e+02
707             	3.48249140e+02
708             	3.48249920e+02
709             	3.48250840e+02
710             	3.48251964e+02
711             	3.48253259e+02
712             	3.48254768e+02
713             	3.48256472e+02
714             	3.48258316e+02
715             	3.48260267e+02
716             	3.48262283e+02
717             	3.48264291e+02
718             	3.48266286e+02
719             	3.48268282e+02
720             	3.48270237e+02
721             	3.48272154e+02
722             	3.48274025e+02
723             	3.48275850e+02
724             	3.48277613e+02
725             	3.48279292e+02
726             	3.48280871e+02
727             	3.48282208e+02
728             	3.48283275e+02
729             	3.48284121e+02
730             	3.48284670e+02
731             	3.48284943e+02
732             	3.48284999e+02
733             	3.48284875e+02
734             	3.48284600e+02
735             	3.48284206e+02
736             	3.48283737e+02
737             	3.48283231e+02
738             	3.48282722e+02
739             	3.48282282e+02
740             	3.48281942e+02
741             	3.48281733e+02
742             	3.48281717e+02
743             	3.48281901e+02
744             	3.48282287e+02
745             	3.48282897e+02
746             	3.48283663e+02
747             	3.48284600e+02
748             	3.48285729e+02
749             	3.48287046e+02
750             	3.48288518e+02
751             	3.48290114e+02
752             	3.48291793e+02
753             	3.48293499e+02
754             	3.48295186e+02
755             	3.48296789e+02
756             	3.48298315e+02
757             	3.48299625e+02
758             	3.48300697e+02
759             	3.48301545e+02
760             	3.48302211e+02
761             	3.48302701e+02
762             	3.48303002e+02
763             	3.48303066e+02
764             	3.48302953e+02
765             	3.48302627e+02
766             	3.48302116e+02
767             	3.48301457e+02
768             	3.48300705e+02
769             	3.48299909e+02
770             	3.48299089e+02
771             	3.48298294e+02
772             	3.48297540e+02
773             	3.48296833e+02
774             	3.48296196e+02
775             	3.48295630e+02
776             	3.48295163e+02
777             	3.48294776e+02
778             	3.48294507e+02
779             	3.48294377e+02
780             	3.48294419e+02
781             	3.48294668e+02
782             	3.48295207e+02
783             	3.48295985e+02
784             	3.48296975e+02
785             	3.48298176e+02
786             	3.48299633e+02
787             	3.48301143e+02
788             	3.48302785e+02
789             	3.48304465e+02
790             	3.48306280e+02
791             	3.48308166e+02
792             	3.48310027e+02
793             	3.48311832e+02
794             	3.48313561e+02
795             	3.48315207e+02
796             	3.48316791e+02
797             	3.48318311e+02
798             	3.48319731e+02
799             	3.48321059e+02
800             	3.48322302e+02
801             	3.48323450e+02
802             	3.48324489e+02
803             	3.48325422e+02
804             	3.48326140e+02
805             	3.48326616e+02
806             	3.48326891e+02
807             	3.48327000e+02
808             	3.48326967e+02
809             	3.48326859e+02
810             	3.48326701e+02
811             	3.48326472e+02
812             	3.48326193e+02
813             	3.48325836e+02
814             	3.48325401e+02
815             	3.48324912e+02
816             	3.48324391e+02
817             	3.48323868e+02
818             	3.48323381e+02
819             	3.48322947e+02
820             	3.48322640e+02
821             	3.48322456e+02
822             	3.48322398e+02
823             	3.48322518e+02
824             	3.48322800e+02
825             	3.48323218e+02
826             	3.48323826e+02
827             	3.48324637e+02
828             	3.48325626e+02
829             	3.48326748e+02
830             	3.48327836e+02
831             	3.48328961e+02
832             	3.48330022e+02
833             	3.48331085e+02
834             	3.48332191e+02
835             	3.48333298e+02
836             	3.48334428e+02
837             	3.48335596e+02
838             	3.48336820e+02
839             	3.48338118e+02
840             	3.48339456e+02
841             	3.48340668e+02
842             	3.48341722e+02
843             	3.48342427e+02
844             	3.48342784e+02
845             	3.48342903e+02
846             	3.48342899e+02
847             	3.48342708e+02
848             	3.48342291e+02
849             	3.48341721e+02
850             	3.48340998e+02
851             	3.48340124e+02
852             	3.48339112e+02
853             	3.48338012e+02
854             	3.48336853e+02
855             	3.48335687e+02
856             	3.48334569e+02
857             	3.48333555e+02
858             	3.48332738e+02
859             	3.48332285e+02
860             	3.48331996e+02
861             	3.48331940e+02
862             	3.48332175e+02
863             	3.48332780e+02
864             	3.48333719e+02
865             	3.48334950e+02
866             	3.48336443e+02
867             	3.48338123e+02
868             	3.48339915e+02
869             	3.48341656e+02
870             	3.48343319e+02
871             	3.48344932e+02
872             	3.48346432e+02
873             	3.48347793e+02
874             	3.48349003e+02
875             	3.48350091e+02
876             	3.48351119e+02
877             	3.48352114e+02
878             	3.48352919e+02
879             	3.48353487e+02
880             	3.48353752e+02
881             	3.48353718e+02
882             	3.48353339e+02
883             	3.48352687e+02
884             	3.48351906e+02
885             	3.48350986e+02
886             	3.48349979e+02
887             	3.48349015e+02
888             	3.48348065e+02
889             	3.48347108e+02
890             	3.48346176e+02
891             	3.48345311e+02
892             	3.48344543e+02
893             	3.48343896e+02
894             	3.48343397e+02
895             	3.48343085e+02
896             	3.48343056e+02
897             	3.48343432e+02
898             	3.48343942e+02
899             	3.48344682e+02
900             	3.48345710e+02
901             	3.48347033e+02
902             	3.48348630e+02
903             	3.48350482e+02
904             	3.48352511e+02
905             	3.48354644e+02
906             	3.48356817e+02
907             	3.48358983e+02
908             	3.48361096e+02
909             	3.48363110e+02
910             	3.48364973e+02
911             	3.48366682e+02
912             	3.48368249e+02
913             	3.48369687e+02
914             	3.48371009e+02
915             	3.48372191e+02
916             	3.48373217e+02
917             	3.48374058e+02
918             	3.48374701e+02
919             	3.48375146e+02
920             	3.48375457e+02
921             	3.48375624e+02
922             	3.48375688e+02
923             	3.48375730e+02
924             	3.48375693e+02
925             	3.48375572e+02
926             	3.48375345e+02
927             	3.48375025e+02
928             	3.48374668e+02
929             	3.48374265e+02
930             	3.48373843e+02
931             	3.48373376e+02
932             	3.48372862e+02
933             	3.48372398e+02