# Region        : cellZone pcb
# Cells         : 450
# Volume        : 8.37690467e-01
# Time          	volAverage(T)
1               	3.00007155e+02
2               	3.00020867e+02
3               	3.00040081e+02
4               	3.00064479e+02
5               	3.00092638e+02
6               	3.00124928e+02
7               	3.00160884e+02
8               	3.00200272e+02
9               	3.00243324e+02
10              	3.00289890e+02
11              	3.00339856e+02
12              	3.00391969e+02
13              	3.00447338e+02
14              	3.00504443e+02
15              	3.00563265e+02
16              	3.00624876e+02
17              	3.00687050e+02
18              	3.00751101e+02
19              	3.00817477e+02
20              	3.00884975e+02
21              	3.00953064e+02
22              	3.01021902e+02
23              	3.01091208e+02
24              	3.01162180e+02
25              	3.01233861e+02
26              	3.01306718e+02
27              	3.01380398e+02
28              	3.01453839e+02
29              	3.01527573e+02
30              	3.01603875e+02
31              	3.01681239e+02
32              	3.01755888e+02
33              	3.01829046e+02
34              	3.01904176e+02
35              	3.01981672e+02
36              	3.02058561e+02
37              	3.02135829e+02
38              	3.02214326e+02
39              	3.02293273e+02
40              	3.02373267e+02
41              	3.02451684e+02
42              	3.02527519e+02
43              	3.02602521e+02
44              	3.02677609e+02
45              	3.02752508e+02
46              	3.02827102e+02
47              	3.02901559e+02
48              	3.02974330e+02
49              	3.03045178e+02
50              	3.03115143e+02
51              	3.03183692e+02
52              	3.03253151e+02
53              	3.03323753e+02
54              	3.03395527e+02
55              	3.03467696e+02
56              	3.03539730e+02
57              	3.03610791e+02
58              	3.03681417e+02
59              	3.03749746e+02
60              	3.03818013e+02
61              	3.03885608e+02
62              	3.03953138e+02
63              	3.04019719e+02
64              	3.04085566e+02
65              	3.04152424e+02
66              	3.04217075e+02
67              	3.04280875e+02
68              	3.04345110e+02
69              	3.04409767e+02
70              	3.04473311e+02
71              	3.04534425e+02
72              	3.04594029e+02
73              	3.04653992e+02
74              	3.04713069e+02
75              	3.04770779e+02
76              	3.04827624e+02
77              	3.04885073e+02
78              	3.04940179e+02
79              	3.04993573e+02
80              	3.05046292e+02
81              	3.05100203e+02
82              	3.05153487e+02
83              	3.05204656e+02
84              	3.05254516e+02
85              	3.05304868e+02
86              	3.05356339e+02
87              	3.05407153e+02
88              	3.05456627e+02
89              	3.05506169e+02
90              	3.05553998e+02
91              	3.05598754e+02
92              	3.05643658e+02
93              	3.05690635e+02
94              	3.05738357e+02
95              	3.05783748e+02
96              	3.05829036e+02
97              	3.05873427e+02
98              	3.05917134e+02
99              	3.05959421e+02
100             	3.06000914e+02
101             	3.06041242e+02
102             	3.06079555e+02
103             	3.06119687e+02
104             	3.06160441e+02
105             	3.06198257e+02
106             	3.06236698e+02
107             	3.06273973e+02
108             	3.06311092e+02
109             	3.06348612e+02
110             	3.06386153e+02
111             	3.06423300e+02
112             	3.06459307e+02
113             	3.06495093e+02
114             	3.06530589e+02
115             	3.06566037e+02
116             	3.06600931e+02
117             	3.06634946e+02
118             	3.06667801e+02
119             	3.06700528e+02
120             	3.06733412e+02
121             	3.06765410e+02
122             	3.06794635e+02
123             	3.06823046e+02
124             	3.06850868e+02
125             	3.06878830e+02
126             	3.06908068e+02
127             	3.06938454e+02
128             	3.06968401e+02
129             	3.06997224e+02
130             	3.07024819e+02
131             	3.07052100e+02
132             	3.07079367e+02
133             	3.07106786e+02
134             	3.07133625e+02
135             	3.07159385e+02
136             	3.07183854e+02
137             	3.07207700e+02
138             	3.07233003e+02
139             	3.07256204e+02
140             	3.07278962e+02
141             	3.07301691e+02
142             	3.07325093e+02
143             	3.07348051e+02
144             	3.07371082e+02
145             	3.07393667e+02
146             	3.07416171e+02
147             	3.07439157e+02
148             	3.07462274e+02
149             	3.07485148e+02
150             	3.07507597e+02
151             	3.07529250e+02
152             	3.07550997e+02
153             	3.07572002e+02
154             	3.07592543e+02
155             	3.07613601e+02
156             	3.07634968e+02
157             	3.07653192e+02
158             	3.07669423e+02
159             	3.07685664e+02
160             	3.07702027e+02
161             	3.07719447e+02
162             	3.07736938e+02
163             	3.07752735e+02
164             	3.07769160e+02
165             	3.07785939e+02
166             	3.07803114e+02
167             	3.07820458e+02
168             	3.07837973e+02
169             	3.07855974e+02
170             	3.07873155e+02
171             	3.07888634e+02
172             	3.07903637e+02
173             	3.07917645e+02
174             	3.07931532e+02
175             	3.07944643e+02
176             	3.07957142e+02
177             	3.07970097e+02
178             	3.07983630e+02
179             	3.07997074e+02
180             	3.08010835e+02
181             	3.08024092e+02
182             	3.08037390e+02
183             	3.08050967e+02
184             	3.08064549e+02
185             	3.08078308e+02
186             	3.08092236e+02
187             	3.08106311e+02
188             	3.08120167e+02
189             	3.08134328e+02
190             	3.08147713e+02
191             	3.08160274e+02
192             	3.08171961e+02
193             	3.08183735e+02
194             	3.08195751e+02
195             	3.08206459e+02
196             	3.08215945e+02
197             	3.08224556e+02
198             	3.08231900e+02
199             	3.08240515e+02
200             	3.08250799e+02
201             	3.08260505e+02
202             	3.08269624e+02
203             	3.08278913e+02
204             	3.08288816e+02
205             	3.08298709e+02
206             	3.08309251e+02
207             	3.08319903e+02
208             	3.08330041e+02
209             	3.08340090e+02
210             	3.08349663e+02
211             	3.08358941e+02
212             	3.08368203e+02
213             	3.08377057e+02
214             	3.08385534e+02
215             	3.08394164e+02
216             	3.08402255e+02
217             	3.08410420e+02
218             	3.08418414e+02
219             	3.08426492e+02
220             	3.08434596e+02
221             	3.08442773e+02
222             	3.08450325e+02
223             	3.08457637e+02
224             	3.08464839e+02
225             	3.08472369e+02
226             	3.08479980e+02
227             	3.08486782e+02
228             	3.08493914e+02
229             	3.08501285e+02
230             	3.08508074e+02
231             	3.08515029e+02
232             	3.08521787e+02
233             	3.08528617e+02
234             	3.08535144e+02
235             	3.08541689e+02
236             	3.08548041e+02
237             	3.08554323e+02
238             	3.08560359e+02
239             	3.08566545e+02
240             	3.08572541e+02
241             	3.08578571e+02
242             	3.08584556e+02
243             	3.08590981e+02
244             	3.08597633e+02
245             	3.08603787e+02
246             	3.08609410e+02
247             	3.08615281e+02
248             	3.08621041e+02
249             	3.08627068e+02
250             	3.08633097e+02
251             	3.08639376e+02
252             	3.08645483e+02
253             	3.08651636e+02
254             	3.08657657e+02
255             	3.08663416e+02
256             	3.08668867e+02
257             	3.08674156e+02
258             	3.08678932e+02
259             	3.08683712e+02
260             	3.08687851e+02
261             	3.08692639e+02
262             	3.08697360e+02
263             	3.08702169e+02
264             	3.08706511e+02
265             	3.08711203e+02
266             	3.08715362e+02
267             	3.08719662e+02
268             	3.08723663e+02
269             	3.08727379e+02
270             	3.08731154e+02
271             	3.08735048e+02
272             	3.08738720e+02
273             	3.08742388e+02
274             	3.08746220e+02
275             	3.08750281e+02
276             	3.08754729e+02
277             	3.08759220e+02
278             	3.08764120e+02
279             	3.08769462e+02
280             	3.08774704e+02
281             	3.08779810e+02
282             	3.08784963e+02
283             	3.08789420e+02
284             	3.08794153e+02
285             	3.08798571e+02
286             	3.08802067e+02
287             	3.08804725e+02
288             	3.08807594e+02
289             	3.08810318e+02
290             	3.08813454e+02
291             	3.08816303e+02
292             	3.08819112e+02
293             	3.08821795e+02
294             	3.08824468e+02
295             	3.08827262e+02
296             	3.08829743e+02
297             	3.08832671e+02
298             	3.08835934e+02
299             	3.08838646e+02
300             	3.08841589e+02
301             	3.08844456e+02
302             	3.08847560e+02
303             	3.08850526e+02
304             	3.08853701e+02
305             	3.08856581e+02
306             	3.08859354e+02
307             	3.08861846e+02
308             	3.08864435e+02
309             	3.08867089e+02
310             	3.08869531e+02
311             	3.08872050e+02
312             	3.08874181e+02
313             	3.08876511e+02
314             	3.08878724e+02
315             	3.08881203e+02
316             	3.08883726e+02
317             	3.08886284e+02
318             	3.08888603e+02
319             	3.08891096e+02
320             	3.08893558e+02
321             	3.08896419e+02
322             	3.08899074e+02
323             	3.08901831e+02
324             	3.08904141e+02
325             	3.08906506e+02
326             	3.08908590e+02
327             	3.08910776e+02
328             	3.08912734e+02
329             	3.08914853e+02
330             	3.08917024e+02
331             	3.08919304e+02
332             	3.08921478e+02
333             	3.08923451e+02
334             	3.08925658e+02
335             	3.08927671e+02
336             	3.08929670e+02
337             	3.08931425e+02
338             	3.08933298e+02
339             	3.08935020e+02
340             	3.08936872e+02
341             	3.08938420e+02
342             	3.08940079e+02
343             	3.08941293e+02
344             	3.08942317e+02
345             	3.08943564e+02
346             	3.08945020e+02
347             	3.08946184e+02
348             	3.08947735e+02
349             	3.08949576e+02
350             	3.08951076e+02
351             	3.08952073e+02
352             	3.08953318e+02
353             	3.08954579e+02
354             	3.08956209e+02
355             	3.08957857e+02
356             	3.08959865e+02
357             	3.08961849e+02
358             	3.08963597e+02
359             	3.08965669e+02
360             	3.08968589e+02
361             	3.08971286e+02
362             	3.08973449e+02
363             	3.08974472e+02
364             	3.08975528e+02
365             	3.08976484e+02
366             	3.08977637e+02
367             	3.08978514e+02
368             	3.08979569e+02
369             	3.08980616e+02
370             	3.08981832e+02
371             	3.08982841e+02
372             	3.08984183e+02
373             	3.08985751e+02
374             	3.08987816e+02
375             	3.08989847e+02
376             	3.08992126e+02
377             	3.08993986e+02
378             	3.08995567e+02
379             	3.08996268e+02
380             	3.08996814e+02
381             	3.08997355e+02
382             	3.08998329e+02
383             	3.08999555e+02
384             	3.09001156e+02
385             	3.09002946e+02
386             	3.09005282e+02
387             	3.09008094e+02
388             	3.09011023e+02
389             	3.09012934e+02
390             	3.09014253e+02
391             	3.09015181e+02
392             	3.09016371e+02
393             	3.09017271e+02
394             	3.09018282e+02
395             	3.09018834e+02
396             	3.09019562e+02
397             	3.09020015e+02
398             	3.09020632e+02
399             	3.09020971e+02
400             	3.09021465e+02
401             	3.09021727e+02
402             	3.09022176e+02
403             	3.09022437e+02
404             	3.09022936e+02
405             	3.09023363e+02
406             	3.09024051e+02
407             	3.09024671e+02
408             	3.09025671e+02
409             	3.09026812e+02
410             	3.09028286e+02
411             	3.09030288e+02
412             	3.09032329e+02
413             	3.09033684e+02
414             	3.09034681e+02
415             	3.09035071e+02
416             	3.09035164e+02
417             	3.09035797e+02
418             	3.09035784e+02
419             	3.09035668e+02
420             	3.09035594e+02
421             	3.09035879e+02
422             	3.09036643e+02
423             	3.09037755e+02
424             	3.09039103e+02
425             	3.09040679e+02
426             	3.09042117e+02
427             	3.09043065e+02
428             	3.09043613e+02
429             	3.09043828e+02
430             	3.09044176e+02
431             	3.09044347e+02
432             	3.09044817e+02
433             	3.09045180e+02
434             	3.09045759e+02
435             	3.09046102e+02
436             	3.09046676e+02
437             	3.09047009e+02
438             	3.09047500e+02
439             	3.09048024e+02
440             	3.09048302e+02
441             	3.09048486e+02
442             	3.09048866e+02
443             	3.09049303e+02
444             	3.09049396e+02
445             	3.09049692e+02
446             	3.09050161e+02
447             	3.09050255e+02
448             	3.09050556e+02
449             	3.09050674e+02
450             	3.09051012e+02
451             	3.09051243e+02
452             	3.09051738e+02
453             	3.09052125e+02
454             	3.09052770e+02
455             	3.09053340e+02
456             	3.09054060e+02
457             	3.09054671e+02
458             	3.09055331e+02
459             	3.09055747e+02
460             	3.09056170e+02
461             	3.09056562e+02
462             	3.09056736e+02
463             	3.09056622e+02
464             	3.09056955e+02
465             	3.09057441e+02
466             	3.09057469e+02
467             	3.09057775e+02
468             	3.09058313e+02
469             	3.09058687e+02
470             	3.09058998e+02
471             	3.09059464e+02
472             	3.09059984e+02
473             	3.09060271e+02
474             	3.09060646e+02
475             	3.09060566e+02
476             	3.09060468e+02
477             	3.09060551e+02
478             	3.09060775e+02
479             	3.09060990e+02
480             	3.09060792e+02
481             	3.09060772e+02
482             	3.09060502e+02
483             	3.09060467e+02
484             	3.09059950e+02
485             	3.09059915e+02
486             	3.09059803e+02
487             	3.09059955e+02
488             	3.09059919e+02
489             	3.09060129e+02
490             	3.09060132e+02
491             	3.09060350e+02
492             	3.09060354e+02
493             	3.09060586e+02
494             	3.09060724e+02
495             	3.09061178e+02
496             	3.09061666e+02
497             	3.09062439e+02
498             	3.09063144e+02
499             	3.09063911e+02
500             	3.09064373e+02
501             	3.09064879e+02
502             	3.09065061e+02
503             	3.09065246e+02
504             	3.09065226e+02
505             	3.09065435e+02
506             	3.09065388e+02
507             	3.09065410e+02
508             	3.09065448e+02
509             	3.09065831e+02
510             	3.09066601e+02
511             	3.09067092e+02
512             	3.09067444e+02
513             	3.09067867e+02
514             	3.09068013e+02
515             	3.09067708e+02
516             	3.09067739e+02
517             	3.09067895e+02
518             	3.09067734e+02
519             	3.09067665e+02
520             	3.09067422e+02
521             	3.09067378e+02
522             	3.09067102e+02
523             	3.09067050e+02
524             	3.09066679e+02
525             	3.09066769e+02
526             	3.09066857e+02
527             	3.09067240e+02
528             	3.09067834e+02
529             	3.09067962e+02
530             	3.09068332e+02
531             	3.09068819e+02
532             	3.09068950e+02
533             	3.09069302e+02
534             	3.09069228e+02
535             	3.09068995e+02
536             	3.09068976e+02
537             	3.09069202e+02
538             	3.09068935e+02
539             	3.09069080e+02
540             	3.09069455e+02
541             	3.09069615e+02
542             	3.09070102e+02
543             	3.09070592e+02
544             	3.09070915e+02
545             	3.09070642e+02
546             	3.09070363e+02
547             	3.09069943e+02
548             	3.09069748e+02
549             	3.09069529e+02
550             	3.09069517e+02
551             	3.09069405e+02
552             	3.09069430e+02
553             	3.09069329e+02
554             	3.09069556e+02
555             	3.09069458e+02
556             	3.09069401e+02
557             	3.09069251e+02
558             	3.09069316e+02
559             	3.09069542e+02
560             	3.09069252e+02
561             	3.09069263e+02
562             	3.09069541e+02
563             	3.09069173e+02
564             	3.09069036e+02
565             	3.09068839e+02
566             	3.09068769e+02
567             	3.09068230e+02
568             	3.09067817e+02
569             	3.09067802e+02
570             	3.09067463e+02
571             	3.09067530e+02
572             	3.09067709e+02
573             	3.09067527e+02
574             	3.09067472e+02
575             	3.09067610e+02
576             	3.09067391e+02
577             	3.09067249e+02
578             	3.09066863e+02
579             	3.09066686e+02
580             	3.09066501e+02
581             	3.09066936e+02
582             	3.09067311e+02
583             	3.09067433e+02
584             	3.09067284e+02
585             	3.09067291e+02
586             	3.09067251e+02
587             	3.09067428e+02
588             	3.09067383e+02
589             	3.09067360e+02
590             	3.09067146e+02
591             	3.09067211e+02
592             	3.09067342e+02
593             	3.09067781e+02
594             	3.09067935e+02
595             	3.09067561e+02
596             	3.09066690e+02
597             	3.09066083e+02
598             	3.09065545e+02
599             	3.09065231e+02
600             	3.09064853e+02
601             	3.09064781e+02
602             	3.09064740e+02
603             	3.09064891e+02
604             	3.09064959e+02
605             	3.09065234e+02
606             	3.09065425e+02
607             	3.09065730e+02
608             	3.09065912e+02
609             	3.09066115e+02
610             	3.09066135e+02
611             	3.09066139e+02
612             	3.09065952e+02
613             	3.09065876e+02
614             	3.09065656e+02
615             	3.09065663e+02
616             	3.09065108e+02
617             	3.09065058e+02
618             	3.09064972e+02
619             	3.09065137e+02
620             	3.09065053e+02
621             	3.09065132e+02
622             	3.09065409e+02
623             	3.09065144e+02
624             	3.09065079e+02
625             	3.09064858e+02
626             	3.09064881e+02
627             	3.09064857e+02
628             	3.09065221e+02
629             	3.09065650e+02
630             	3.09066460e+02
631             	3.09067218e+02
632             	3.09068298e+02
633             	3.09068330e+02
634             	3.09068020e+02
635             	3.09067626e+02
636             	3.09067509e+02
637             	3.09067522e+02
638             	3.09067700e+02
639             	3.09067810e+02
640             	3.09068573e+02
641             	3.09069489e+02
642             	3.09070431e+02
643             	3.09070609e+02
644             	3.09070145e+02
645             	3.09069918e+02
646             	3.09069556e+02
647             	3.09069168e+02
648             	3.09068645e+02
649             	3.09068384e+02
650             	3.09067928e+02
651             	3.09067789e+02
652             	3.09067520e+02
653             	3.09067403e+02
654             	3.09067118e+02
655             	3.09067009e+02
656             	3.09066824e+02
657             	3.09066889e+02
658             	3.09066912e+02
659             	3.09067220e+02
660             	3.09067422e+02
661             	3.09067807e+02
662             	3.09067982e+02
663             	3.09068308e+02
664             	3.09068400e+02
665             	3.09068671e+02
666             	3.09068721e+02
667             	3.09068658e+02
668             	3.09068518e+02
669             	3.09068964e+02
670             	3.09069716e+02
671             	3.09071262e+02
672             	3.09073105e+02
673             	3.09074412e+02
674             	3.09074336e+02
675             	3.09073628e+02
676             	3.09072797e+02
677             	3.09072283e+02
678             	3.09071940e+02
679             	3.09071941e+02
680             	3.09072191e+02
681             	3.09073448e+02
682             	3.09074463e+02
683             	3.09075193e+02
684             	3.09075827e+02
685             	3.09076442e+02
686             	3.09076460e+02
687             	3.09076519e+02
688             	3.09076121e+02
689             	3.09075755e+02
690             	3.09075260e+02
691             	3.09074960e+02
692             	3.09074517e+02
693             	3.09074284e+02
694             	3.09073852e+02
695             	3.09073644e+02
696             	3.09073293e+02
697             	3.09073171e+02
698             	3.09072740e+02
699             	3.09072498e+02
700             	3.09072176e+02
701             	3.09072134e+02
702             	3.09071903e+02
703             	3.09071864e+02
704             	3.09071664e+02
705             	3.09071693e+02
706             	3.09071566e+02
707             	3.09071698e+02
708             	3.09071669e+02
709             	3.09071955e+02
710             	3.09072475e+02
711             	3.09072628e+02
712             	3.09073030e+02
713             	3.09073114e+02
714             	3.09073469e+02
715             	3.09073341e+02
716             	3.09073469e+02
717             	3.09073704e+02
718             	3.09073564e+02
719             	3.09073665e+02
720             	3.09073597e+02
721             	3.09073724e+02
722             	3.09073710e+02
723             	3.09073886e+02
724             	3.09073874e+02
725             	3.09073963e+02
726             	3.09073847e+02
727             	3.09073815e+02
728             	3.09073671e+02
729             	3.09073665e+02
730             	3.09073558e+02
731             	3.09073676e+02
732             	3.09074036e+02
733             	3.09074260e+02
734             	3.09074185e+02
735             	3.09074192e+02
736             	3.09074062e+02
737             	3.09074030e+02
738             	3.09073909e+02
739             	3.09073914e+02
740             	3.09073781e+02
741             	3.09073708e+02
742             	3.09073502e+02
743             	3.09073483e+02
744             	3.09073168e+02
745             	3.09073164e+02
746             	3.09072986e+02
747             	3.09072725e+02
748             	3.09072414e+02
749             	3.09072496e+02
750             	3.09072445e+02
751             	3.09072613e+02
752             	3.09072931e+02
753             	3.09073036e+02
754             	3.09073312e+02
755             	3.09073679e+02
756             	3.09073678e+02
757             	3.09073555e+02
758             	3.09073719e+02
759             	3.09073698e+02
760             	3.09073987e+02
761             	3.09074124e+02
762             	3.09074389e+02
763             	3.09074427e+02
764             	3.09074450e+02
765             	3.09074268e+02
766             	3.09074169e+02
767             	3.09073974e+02
768             	3.09073875e+02
769             	3.09073937e+02
770             	3.09073601e+02
771             	3.09073725e+02
772             	3.09074156e+02
773             	3.09074259e+02
774             	3.09074540e+02
775             	3.09074617e+02
776             	3.09074452e+02
777             	3.09074469e+02
778             	3.09074368e+02
779             	3.09074375e+02
780             	3.09074502e+02
781             	3.09074384e+02
782             	3.09074425e+02
783             	3.09074329e+02
784             	3.09074360e+02
785             	3.09074189e+02
786             	3.09074177e+02
787             	3.09073952e+02
788             	3.09073885e+02
789             	3.09073623e+02
790             	3.09073572e+02
791             	3.09073351e+02
792             	3.09073375e+02
793             	3.09073235e+02
794             	3.09073375e+02
795             	3.09073162e+02
796             	3.09073349e+02
797             	3.09073446e+02
798             	3.09073778e+02
799             	3.09073949e+02
800             	3.09074359e+02
801             	3.09074692e+02
802             	3.09075277e+02
803             	3.09075644e+02
804             	3.09076103e+02
805             	3.09076236e+02
806             	3.09076346e+02
807             	3.09076136e+02
808             	3.09076009e+02
809             	3.09075760e+02
810             	3.09075620e+02
811             	3.09075728e+02
812             	3.09075746e+02
813             	3.09076109e+02
814             	3.09076349e+02
815             	3.09077010e+02
816             	3.09077477e+02
817             	3.09077815e+02
818             	3.09077820e+02
819             	3.09077963e+02
820             	3.09077843e+02
821             	3.09077864e+02
822             	3.09078036e+02
823             	3.09077552e+02
824             	3.09077349e+02
825             	3.09077280e+02
826             	3.09077040e+02
827             	3.09076863e+02
828             	3.09076400e+02
829             	3.09076013e+02
830             	3.09075404e+02
831             	3.09075084e+02
832             	3.09074587e+02
833             	3.09074394e+02
834             	3.09074016e+02
835             	3.09073956e+02
836             	3.09073747e+02
837             	3.09073844e+02
838             	3.09073806e+02
839             	3.09073883e+02
840             	3.09074220e+02
841             	3.09074197e+02
842             	3.09074475e+02
843             	3.09075137e+02
844             	3.09075460e+02
845             	3.09075971e+02
846             	3.09076152e+02
847             	3.09076380e+02
848             	3.09076337e+02
849             	3.09076459e+02
850             	3.09076445e+02
851             	3.09076577e+02
852             	3.09076506e+02
853             	3.09076482e+02
854             	3.09076227e+02
855             	3.09076048e+02
856             	3.09075921e+02
857             	3.09075950e+02
858             	3.09075844e+02
859             	3.09076073e+02
860             	3.09076050e+02
861             	3.09076005e+02
862             	3.09076030e+02
863             	3.09076138e+02
864             	3.09075650e+02
865             	3.09075384e+02
866             	3.09075258e+02
867             	3.09074949e+02
868             	3.09074674e+02
869             	3.09074567e+02
870             	3.09074566e+02
871             	3.09074252e+02
872             	3.09073887e+02
873             	3.09073406e+02
874             	3.09073320e+02
875             	3.09072854e+02
876             	3.09072708e+02
877             	3.09072458e+02
878             	3.09072497e+02
879             	3.09072419e+02
880             	3.09072526e+02
881             	3.09072774e+02
882             	3.09072738e+02
883             	3.09072870e+02
884             	3.09072641e+02
885             	3.09072615e+02
886             	3.09072428e+02
887             	3.09072737e+02
888             	3.09072832e+02
889             	3.09072985e+02
890             	3.09072972e+02
891             	3.09073008e+02
892             	3.09072823e+02
893             	3.09072637e+02
894             	3.09072283e+02
895             	3.09072183e+02
896             	3.09072026e+02
897             	3.09071751e+02
898             	3.09071299e+02
899             	3.09071013e+02
900             	3.09070610e+02
901             	3.09070426e+02
902             	3.09069964e+02
903             	3.09069795e+02
904             	3.09069425e+02
905             	3.09069222e+02
906             	3.09068880e+02
907             	3.09068838e+02
908             	3.09068561e+02
909             	3.09068404e+02
910             	3.09068126e+02
911             	3.09068106e+02
912             	3.09068029e+02
913             	3.09068209e+02
914             	3.09068288e+02
915             	3.09068440e+02
916             	3.09068396e+02
917             	3.09068437e+02
918             	3.09068362e+02
919             	3.09068460e+02
920             	3.09068486e+02
921             	3.09068644e+02
922             	3.09068643e+02
923             	3.09068834e+02
924             	3.09068705e+02
925             	3.09068806e+02
926             	3.09068642e+02
927             	3.09068667e+02
928             	3.09068445e+02
929             	3.09068439e+02
930             	3.09068586e+02
931             	3.09068554e+02
932             	3.09068731e+02
933             	3.09068978e+02