# Region        : cellZone fluid
# Cells         : 9442
# Volume        : 1.77793113e+01
# Time          	volAverage(T)
1               	3.00000226e+02
2               	3.00000335e+02
3               	3.00001217e+02
4               	3.00002265e+02
5               	3.00002803e+02
6               	3.00003312e+02
7               	3.00003965e+02
8               	3.00004489e+02
9               	3.00005629e+02
10              	3.00006621e+02
11              	3.00007473e+02
12              	3.00008452e+02
13              	3.00009541e+02
14              	3.00010784e+02
15              	3.00011814e+02
16              	3.00013823e+02
17              	3.00015152e+02
18              	3.00016792e+02
19              	3.00018231e+02
20              	3.00020072e+02
21              	3.00021418e+02
22              	3.00023817e+02
23              	3.00025361e+02
24              	3.00027253e+02
25              	3.00029383e+02
26              	3.00031095e+02
27              	3.00034351e+02
28              	3.00035354e+02
29              	3.00036487e+02
30              	3.00037726e+02
31              	3.00039335e+02
32              	3.00042666e+02
33              	3.00044115e+02
34              	3.00045953e+02
35              	3.00047684e+02
36              	3.00049099e+02
37              	3.00051910e+02
38              	3.00054055e+02
39              	3.00056236e+02
40              	3.00058413e+02
41              	3.00061322e+02
42              	3.00063737e+02
43              	3.00065952e+02
44              	3.00067654e+02
45              	3.00070410e+02
46              	3.00073005e+02
47              	3.00075751e+02
48              	3.00077455e+02
49              	3.00079414e+02
50              	3.00081657e+02
51              	3.00083138e+02
52              	3.00084760e+02
53              	3.00086379e+02
54              	3.00087580e+02
55              	3.00089419e+02
56              	3.00091028e+02
57              	3.00093401e+02
58              	3.00095134e+02
59              	3.00097027e+02
60              	3.00099455e+02
61              	3.00101458e+02
62              	3.00103465e+02
63              	3.00105846e+02
64              	3.00108048e+02
65              	3.00110355e+02
66              	3.00113371e+02
67              	3.00115282e+02
68              	3.00117447e+02
69              	3.00119454e+02
70              	3.00120704e+02
71              	3.00122758e+02
72              	3.00124675e+02
73              	3.00127488e+02
74              	3.00129407e+02
75              	3.00131432e+02
76              	3.00132706e+02
77              	3.00135618e+02
78              	3.00138032e+02
79              	3.00140959e+02
80              	3.00143993e+02
81              	3.00145399e+02
82              	3.00147622e+02
83              	3.00149493e+02
84              	3.00150008e+02
85              	3.00151620e+02
86              	3.00152920e+02
87              	3.00154258e+02
88              	3.00156059e+02
89              	3.00157873e+02
90              	3.00158869e+02
91              	3.00161408e+02
92              	3.00163372e+02
93              	3.00164920e+02
94              	3.00166062e+02
95              	3.00167417e+02
96              	3.00169795e+02
97              	3.00171131e+02
98              	3.00172694e+02
99              	3.00173667e+02
100             	3.00175037e+02
101             	3.00176174e+02
102             	3.00177890e+02
103             	3.00178715e+02
104             	3.00181359e+02
105             	3.00183203e+02
106             	3.00184057e+02
107             	3.00185287e+02
108             	3.00186088e+02
109             	3.00187072e+02
110             	3.00188157e+02
111             	3.00189146e+02
112             	3.00190372e+02
113             	3.00191585e+02
114             	3.00192892e+02
115             	3.00194486e+02
116             	3.00196520e+02
117             	3.00197750e+02
118             	3.00199082e+02
119             	3.00200242e+02
120             	3.00201689e+02
121             	3.00205306e+02
122             	3.00206085e+02
123             	3.00207231e+02
124             	3.00209225e+02
125             	3.00210581e+02
126             	3.00212576e+02
127             	3.00213178e+02
128             	3.00212923e+02
129             	3.00215109e+02
130             	3.00215267e+02
131             	3.00216970e+02
132             	3.00217665e+02
133             	3.00218142e+02
134             	3.00218388e+02
135             	3.00218258e+02
136             	3.00219652e+02
137             	3.00222306e+02
138             	3.00223424e+02
139             	3.00224660e+02
140             	3.00226666e+02
141             	3.00227312e+02
142             	3.00227758e+02
143             	3.00227796e+02
144             	3.00228538e+02
145             	3.00228729e+02
146             	3.00229231e+02
147             	3.00229318e+02
148             	3.00229276e+02
149             	3.00230058e+02
150             	3.00230895e+02
151             	3.00231621e+02
152             	3.00233003e+02
153             	3.00233003e+02
154             	3.00233099e+02
155             	3.00232768e+02
156             	3.00233106e+02
157             	3.00233322e+02
158             	3.00233950e+02
159             	3.00237719e+02
160             	3.00237066e+02
161             	3.00237698e+02
162             	3.00238109e+02
163             	3.00238249e+02
164             	3.00238934e+02
165             	3.00237750e+02
166             	3.00238128e+02
167             	3.00238590e+02
168             	3.00239914e+02
169             	3.00240562e+02
170             	3.00241284e+02
171             	3.00241581e+02
172             	3.00242064e+02
173             	3.00242793e+02
174             	3.00244312e+02
175             	3.00244740e+02
176             	3.00245762e+02
177             	3.00246708e+02
178             	3.00246791e+02
179             	3.00247524e+02
180             	3.00247726e+02
181             	3.00248223e+02
182             	3.00249267e+02
183             	3.00250422e+02
184             	3.00250859e+02
185             	3.00250585e+02
186             	3.00251722e+02
187             	3.00252164e+02
188             	3.00252577e+02
189             	3.00251863e+02
190             	3.00253144e+02
191             	3.00253796e+02
192             	3.00254998e+02
193             	3.00255392e+02
194             	3.00255122e+02
195             	3.00256019e+02
196             	3.00256225e+02
197             	3.00257297e+02
198             	3.00257464e+02
199             	3.00257727e+02
200             	3.00258118e+02
201             	3.00258689e+02
202             	3.00259190e+02
203             	3.00259388e+02
204             	3.00260000e+02
205             	3.00261238e+02
206             	3.00261858e+02
207             	3.00262697e+02
208             	3.00263135e+02
209             	3.00264152e+02
210             	3.00264210e+02
211             	3.00265227e+02
212             	3.00265643e+02
213             	3.00265573e+02
214             	3.00265512e+02
215             	3.00265601e+02
216             	3.00265388e+02
217             	3.00265612e+02
218             	3.00265502e+02
219             	3.00265701e+02
220             	3.00266177e+02
221             	3.00266906e+02
222             	3.00267023e+02
223             	3.00267644e+02
224             	3.00268117e+02
225             	3.00268423e+02
226             	3.00268934e+02
227             	3.00269380e+02
228             	3.00270988e+02
229             	3.00270134e+02
230             	3.00270002e+02
231             	3.00270148e+02
232             	3.00270400e+02
233             	3.00270863e+02
234             	3.00270836e+02
235             	3.00271923e+02
236             	3.00271493e+02
237             	3.00272309e+02
238             	3.00272862e+02
239             	3.00273500e+02
240             	3.00273553e+02
241             	3.00273623e+02
242             	3.00273607e+02
243             	3.00274429e+02
244             	3.00274519e+02
245             	3.00274752e+02
246             	3.00274552e+02
247             	3.00275011e+02
248             	3.00275129e+02
249             	3.00275443e+02
250             	3.00275564e+02
251             	3.00275999e+02
252             	3.00276141e+02
253             	3.00275998e+02
254             	3.00276258e+02
255             	3.00276317e+02
256             	3.00276347e+02
257             	3.00276435e+02
258             	3.00276221e+02
259             	3.00276116e+02
260             	3.00276075e+02
261             	3.00276391e+02
262             	3.00276479e+02
263             	3.00276699e+02
264             	3.00276818e+02
265             	3.00277044e+02
266             	3.00277039e+02
267             	3.00277293e+02
268             	3.00277417e+02
269             	3.00277739e+02
270             	3.00277797e+02
271             	3.00278032e+02
272             	3.00278222e+02
273             	3.00278592e+02
274             	3.00278425e+02
275             	3.00279036e+02
276             	3.00278886e+02
277             	3.00278917e+02
278             	3.00278844e+02
279             	3.00278894e+02
280             	3.00279000e+02
281             	3.00278984e+02
282             	3.00278996e+02
283             	3.00279172e+02
284             	3.00279475e+02
285             	3.00279819e+02
286             	3.00280256e+02
287             	3.00280552e+02
288             	3.00280905e+02
289             	3.00281070e+02
290             	3.00281437e+02
291             	3.00281570e+02
292             	3.00281862e+02
293             	3.00281945e+02
294             	3.00281910e+02
295             	3.00282258e+02
296             	3.00282467e+02
297             	3.00282648e+02
298             	3.00282898e+02
299             	3.00283148e+02
300             	3.00283910e+02
301             	3.00284134e+02
302             	3.00284206e+02
303             	3.00284449e+02
304             	3.00284772e+02
305             	3.00284980e+02
306             	3.00285328e+02
307             	3.00285309e+02
308             	3.00285325e+02
309             	3.00285575e+02
310             	3.00285498e+02
311             	3.00285621e+02
312             	3.00285641e+02
313             	3.00285606e+02
314             	3.00286132e+02
315             	3.00286439e+02
316             	3.00286718e+02
317             	3.00286854e+02
318             	3.00287046e+02
319             	3.00287120e+02
320             	3.00287164e+02
321             	3.00287026e+02
322             	3.00287022e+02
323             	3.00286894e+02
324             	3.00286903e+02
325             	3.00286942e+02
326             	3.00287003e+02
327             	3.00286918e+02
328             	3.00287154e+02
329             	3.00287018e+02
330             	3.00286981e+02
331             	3.00286870e+02
332             	3.00286838e+02
333             	3.00286921e+02
334             	3.00286920e+02
335             	3.00286972e+02
336             	3.00286989e+02
337             	3.00287070e+02
338             	3.00287116e+02
339             	3.00287085e+02
340             	3.00287245e+02
341             	3.00287363e+02
342             	3.00287533e+02
343             	3.00287593e+02
344             	3.00287702e+02
345             	3.00287731e+02
346             	3.00287784e+02
347             	3.00287943e+02
348             	3.00288007e+02
349             	3.00288186e+02
350             	3.00288580e+02
351             	3.00288787e+02
352             	3.00289016e+02
353             	3.00289220e+02
354             	3.00289377e+02
355             	3.00289562e+02
356             	3.00289614e+02
357             	3.00289920e+02
358             	3.00289731e+02
359             	3.00289803e+02
360             	3.00289752e+02
361             	3.00289932e+02
362             	3.00290115e+02
363             	3.00290255e+02
364             	3.00290380e+02
365             	3.00290548e+02
366             	3.00290531e+02
367             	3.00290311e+02
368             	3.00290471e+02
369             	3.00290612e+02
370             	3.00290736e+02
371             	3.00290785e+02
372             	3.00290866e+02
373             	3.00291068e+02
374             	3.00291198e+02
375             	3.00291364e+02
376             	3.00291497e+02
377             	3.00291660e+02
378             	3.00291762e+02
379             	3.00291753e+02
380             	3.00291767e+02
381             	3.00291733e+02
382             	3.00291779e+02
383             	3.00291728e+02
384             	3.00292075e+02
385             	3.00291977e+02
386             	3.00292019e+02
387             	3.00292032e+02
388             	3.00292126e+02
389             	3.00292245e+02
390             	3.00292364e+02
391             	3.00292497e+02
392             	3.00292614e+02
393             	3.00292467e+02
394             	3.00292473e+02
395             	3.00292589e+02
396             	3.00292680e+02
397             	3.00292754e+02
398             	3.00292778e+02
399             	3.00292914e+02
400             	3.00292997e+02
401             	3.00293133e+02
402             	3.00293192e+02
403             	3.00293367e+02
404             	3.00293282e+02
405             	3.00293345e+02
406             	3.00293467e+02
407             	3.00293565e+02
408             	3.00293577e+02
409             	3.00293681e+02
410             	3.00293792e+02
411             	3.00293834e+02
412             	3.00293843e+02
413             	3.00293892e+02
414             	3.00293904e+02
415             	3.00293937e+02
416             	3.00293941e+02
417             	3.00294112e+02
418             	3.00294187e+02
419             	3.00294276e+02
420             	3.00294353e+02
421             	3.00294446e+02
422             	3.00294471e+02
423             	3.00294553e+02
424             	3.00294610e+02
425             	3.00294788e+02
426             	3.00294800e+02
427             	3.00294784e+02
428             	3.00294898e+02
429             	3.00294918e+02
430             	3.00295015e+02
431             	3.00295038e+02
432             	3.00295145e+02
433             	3.00294993e+02
434             	3.00295203e+02
435             	3.00295307e+02
436             	3.00295330e+02
437             	3.00295380e+02
438             	3.00295418e+02
439             	3.00295489e+02
440             	3.00295554e+02
441             	3.00295653e+02
442             	3.00295686e+02
443             	3.00295676e+02
444             	3.00295664e+02
445             	3.00295617e+02
446             	3.00295743e+02
447             	3.00295739e+02
448             	3.00295823e+02
449             	3.00295730e+02
450             	3.00295788e+02
451             	3.00295948e+02
452             	3.00296023e+02
453             	3.00296037e+02
454             	3.00296084e+02
455             	3.00296118e+02
456             	3.00296128e+02
457             	3.00296179e+02
458             	3.00296172e+02
459             	3.00296173e+02
460             	3.00296182e+02
461             	3.00296249e+02
462             	3.00296365e+02
463             	3.00296311e+02
464             	3.00296319e+02
465             	3.00296371e+02
466             	3.00296388e+02
467             	3.00296385e+02
468             	3.00296360e+02
469             	3.00296366e+02
470             	3.00296205e+02
471             	3.00296345e+02
472             	3.00296392e+02
473             	3.00296433e+02
474             	3.00296463e+02
475             	3.00296524e+02
476             	3.00296542e+02
477             	3.00296588e+02
478             	3.00296613e+02
479             	3.00296609e+02
480             	3.00296636e+02
481             	3.00296658e+02
482             	3.00296547e+02
483             	3.00296518e+02
484             	3.00296552e+02
485             	3.00296557e+02
486             	3.00296642e+02
487             	3.00296656e+02
488             	3.00296754e+02
489             	3.00296854e+02
490             	3.00296897e+02
491             	3.00296923e+02
492             	3.00296853e+02
493             	3.00296896e+02
494             	3.00296897e+02
495             	3.00296922e+02
496             	3.00296915e+02
497             	3.00296966e+02
498             	3.00297011e+02
499             	3.00297094e+02
500             	3.00297138e+02
501             	3.00297186e+02
502             	3.00297227e+02
503             	3.00297281e+02
504             	3.00297278e+02
505             	3.00297275e+02
506             	3.00297257e+02
507             	3.00297276e+02
508             	3.00297300e+02
509             	3.00297357e+02
510             	3.00297364e+02
511             	3.00297446e+02
512             	3.00297491e+02
513             	3.00297512e+02
514             	3.00297549e+02
515             	3.00297507e+02
516             	3.00297513e+02
517             	3.00297433e+02
518             	3.00297353e+02
519             	3.00297506e+02
520             	3.00297570e+02
521             	3.00297559e+02
522             	3.00297608e+02
523             	3.00297704e+02
524             	3.00297687e+02
525             	3.00297695e+02
526             	3.00297648e+02
527             	3.00297671e+02
528             	3.00297677e+02
529             	3.00297710e+02
530             	3.00297707e+02
531             	3.00297739e+02
532             	3.00297722e+02
533             	3.00297750e+02
534             	3.00297742e+02
535             	3.00297743e+02
536             	3.00297746e+02
537             	3.00297690e+02
538             	3.00297740e+02
539             	3.00297772e+02
540             	3.00297760e+02
541             	3.00297765e+02
542             	3.00297757e+02
543             	3.00297789e+02
544             	3.00297810e+02
545             	3.00297811e+02
546             	3.00297807e+02
547             	3.00297848e+02
548             	3.00297897e+02
549             	3.00297883e+02
550             	3.00297870e+02
551             	3.00297895e+02
552             	3.00297917e+02
553             	3.00297971e+02
554             	3.00297986e+02
555             	3.00297992e+02
556             	3.00297985e+02
557             	3.00298019e+02
558             	3.00298010e+02
559             	3.00297996e+02
560             	3.00298023e+02
561             	3.00298063e+02
562             	3.00298051e+02
563             	3.00298080e+02
564             	3.00298086e+02
565             	3.00298124e+02
566             	3.00298122e+02
567             	3.00298164e+02
568             	3.00298185e+02
569             	3.00298245e+02
570             	3.00298261e+02
571             	3.00298298e+02
572             	3.00298297e+02
573             	3.00298316e+02
574             	3.00298358e+02
575             	3.00298338e+02
576             	3.00298326e+02
577             	3.00298339e+02
578             	3.00298339e+02
579             	3.00298365e+02
580             	3.00298362e+02
581             	3.00298386e+02
582             	3.00298302e+02
583             	3.00298351e+02
584             	3.00298343e+02
585             	3.00298365e+02
586             	3.00298358e+02
587             	3.00298383e+02
588             	3.00298389e+02
589             	3.00298417e+02
590             	3.00298405e+02
591             	3.00298437e+02
592             	3.00298391e+02
593             	3.00298418e+02
594             	3.00298404e+02
595             	3.00298417e+02
596             	3.00298362e+02
597             	3.00298359e+02
598             	3.00298320e+02
599             	3.00298316e+02
600             	3.00298297e+02
601             	3.00298315e+02
602             	3.00298303e+02
603             	3.00298329e+02
604             	3.00298352e+02
605             	3.00298361e+02
606             	3.00298274e+02
607             	3.00298314e+02
608             	3.00298298e+02
609             	3.00298313e+02
610             	3.00298302e+02
611             	3.00298327e+02
612             	3.00298323e+02
613             	3.00298317e+02
614             	3.00298302e+02
615             	3.00298319e+02
616             	3.00298308e+02
617             	3.00298305e+02
618             	3.00298310e+02
619             	3.00298362e+02
620             	3.00298364e+02
621             	3.00298389e+02
622             	3.00298382e+02
623             	3.00298406e+02
624             	3.00298400e+02
625             	3.00298422e+02
626             	3.00298413e+02
627             	3.00298435e+02
628             	3.00298425e+02
629             	3.00298448e+02
630             	3.00298437e+02
631             	3.00298456e+02
632             	3.00298448e+02
633             	3.00298465e+02
634             	3.00298458e+02
635             	3.00298485e+02
636             	3.00298475e+02
637             	3.00298503e+02
638             	3.00298503e+02
639             	3.00298523e+02
640             	3.00298524e+02
641             	3.00298556e+02
642             	3.00298551e+02
643             	3.00298580e+02
644             	3.00298570e+02
645             	3.00298592e+02
646             	3.00298583e+02
647             	3.00298606e+02
648             	3.00298597e+02
649             	3.00298618e+02
650             	3.00298609e+02
651             	3.00298630e+02
652             	3.00298618e+02
653             	3.00298634e+02
654             	3.00298619e+02
655             	3.00298634e+02
656             	3.00298625e+02
657             	3.00298650e+02
658             	3.00298629e+02
659             	3.00298638e+02
660             	3.00298623e+02
661             	3.00298636e+02
662             	3.00298625e+02
663             	3.00298640e+02
664             	3.00298629e+02
665             	3.00298646e+02
666             	3.00298635e+02
667             	3.00298650e+02
668             	3.00298636e+02
669             	3.00298650e+02
670             	3.00298632e+02
671             	3.00298642e+02
672             	3.00298621e+02
673             	3.00298632e+02
674             	3.00298616e+02
675             	3.00298634e+02
676             	3.00298623e+02
677             	3.00298643e+02
678             	3.00298632e+02
679             	3.00298641e+02
680             	3.00298634e+02
681             	3.00298651e+02
682             	3.00298642e+02
683             	3.00298660e+02
684             	3.00298647e+02
685             	3.00298666e+02
686             	3.00298657e+02
687             	3.00298677e+02
688             	3.00298664e+02
689             	3.00298681e+02
690             	3.00298672e+02
691             	3.00298691e+02
692             	3.00298679e+02
693             	3.00298696e+02
694             	3.00298682e+02
695             	3.00298702e+02
696             	3.00298689e+02
697             	3.00298708e+02
698             	3.00298695e+02
699             	3.00298711e+02
700             	3.00298697e+02
701             	3.00298713e+02
702             	3.00298701e+02
703             	3.00298717e+02
704             	3.00298703e+02
705             	3.00298719e+02
706             	3.00298706e+02
707             	3.00298720e+02
708             	3.00298707e+02
709             	3.00298726e+02
710             	3.00298711e+02
711             	3.00298730e+02
712             	3.00298720e+02
713             	3.00298740e+02
714             	3.00298729e+02
715             	3.00298749e+02
716             	3.00298737e+02
717             	3.00298752e+02
718             	3.00298739e+02
719             	3.00298756e+02
720             	3.00298744e+02
721             	3.00298761e+02
722             	3.00298748e+02
723             	3.00298767e+02
724             	3.00298755e+02
725             	3.00298773e+02
726             	3.00298761e+02
727             	3.00298778e+02
728             	3.00298765e+02
729             	3.00298782e+02
730             	3.00298769e+02
731             	3.00298787e+02
732             	3.00298774e+02
733             	3.00298790e+02
734             	3.00298777e+02
735             	3.00298793e+02
736             	3.00298780e+02
737             	3.00298796e+02
738             	3.00298781e+02
739             	3.00298796e+02
740             	3.00298780e+02
741             	3.00298795e+02
742             	3.00298781e+02
743             	3.00298795e+02
744             	3.00298779e+02
745             	3.00298794e+02
746             	3.00298778e+02
747             	3.00298793e+02
748             	3.00298778e+02
749             	3.00298793e+02
750             	3.00298777e+02
751             	3.00298793e+02
752             	3.00298776e+02
753             	3.00298791e+02
754             	3.00298776e+02
755             	3.00298791e+02
756             	3.00298776e+02
757             	3.00298791e+02
758             	3.00298777e+02
759             	3.00298792e+02
760             	3.00298778e+02
761             	3.00298794e+02
762             	3.00298779e+02
763             	3.00298795e+02
764             	3.00298782e+02
765             	3.00298796e+02
766             	3.00298785e+02
767             	3.00298801e+02
768             	3.00298788e+02
769             	3.00298805e+02
770             	3.00298790e+02
771             	3.00298806e+02
772             	3.00298792e+02
773             	3.00298808e+02
774             	3.00298795e+02
775             	3.00298810e+02
776             	3.00298795e+02
777             	3.00298813e+02
778             	3.00298799e+02
779             	3.00298815e+02
780             	3.00298800e+02
781             	3.00298817e+02
782             	3.00298803e+02
783             	3.00298819e+02
784             	3.00298803e+02
785             	3.00298820e+02
786             	3.00298807e+02
787             	3.00298823e+02
788             	3.00298810e+02
789             	3.00298826e+02
790             	3.00298813e+02
791             	3.00298830e+02
792             	3.00298817e+02
793             	3.00298833e+02
794             	3.00298819e+02
795             	3.00298835e+02
796             	3.00298822e+02
797             	3.00298837e+02
798             	3.00298822e+02
799             	3.00298837e+02
800             	3.00298821e+02
801             	3.00298837e+02
802             	3.00298823e+02
803             	3.00298839e+02
804             	3.00298823e+02
805             	3.00298839e+02
806             	3.00298824e+02
807             	3.00298840e+02
808             	3.00298825e+02
809             	3.00298840e+02
810             	3.00298825e+02
811             	3.00298841e+02
812             	3.00298825e+02
813             	3.00298840e+02
814             	3.00298824e+02
815             	3.00298839e+02
816             	3.00298825e+02
817             	3.00298841e+02
818             	3.00298826e+02
819             	3.00298842e+02
820             	3.00298828e+02
821             	3.00298844e+02
822             	3.00298829e+02
823             	3.00298845e+02
824             	3.00298830e+02
825             	3.00298845e+02
826             	3.00298830e+02
827             	3.00298846e+02
828             	3.00298831e+02
829             	3.00298847e+02
830             	3.00298833e+02
831             	3.00298848e+02
832             	3.00298833e+02
833             	3.00298849e+02
834             	3.00298834e+02
835             	3.00298850e+02
836             	3.00298835e+02
837             	3.00298851e+02
838             	3.00298836e+02
839             	3.00298851e+02
840             	3.00298836e+02
841             	3.00298852e+02
842             	3.00298837e+02
843             	3.00298853e+02
844             	3.00298839e+02
845             	3.00298855e+02
846             	3.00298840e+02
847             	3.00298857e+02
848             	3.00298843e+02
849             	3.00298859e+02
850             	3.00298844e+02
851             	3.00298860e+02
852             	3.00298845e+02
853             	3.00298860e+02
854             	3.00298845e+02
855             	3.00298861e+02
856             	3.00298846e+02
857             	3.00298861e+02
858             	3.00298846e+02
859             	3.00298861e+02
860             	3.00298846e+02
861             	3.00298861e+02
862             	3.00298846e+02
863             	3.00298861e+02
864             	3.00298846e+02
865             	3.00298861e+02
866             	3.00298846e+02
867             	3.00298861e+02
868             	3.00298846e+02
869             	3.00298861e+02
870             	3.00298846e+02
871             	3.00298861e+02
872             	3.00298847e+02
873             	3.00298862e+02
874             	3.00298847e+02
875             	3.00298862e+02
876             	3.00298848e+02
877             	3.00298863e+02
878             	3.00298848e+02
879             	3.00298864e+02
880             	3.00298848e+02
881             	3.00298863e+02
882             	3.00298848e+02
883             	3.00298864e+02
884             	3.00298849e+02
885             	3.00298864e+02
886             	3.00298848e+02
887             	3.00298863e+02
888             	3.00298848e+02
889             	3.00298863e+02
890             	3.00298848e+02
891             	3.00298864e+02
892             	3.00298849e+02
893             	3.00298865e+02
894             	3.00298850e+02
895             	3.00298866e+02
896             	3.00298850e+02
897             	3.00298866e+02
898             	3.00298852e+02
899             	3.00298867e+02
900             	3.00298852e+02
901             	3.00298868e+02
902             	3.00298853e+02
903             	3.00298869e+02
904             	3.00298854e+02
905             	3.00298870e+02
906             	3.00298855e+02
907             	3.00298871e+02
908             	3.00298856e+02
909             	3.00298871e+02
910             	3.00298856e+02
911             	3.00298872e+02
912             	3.00298857e+02
913             	3.00298872e+02
914             	3.00298857e+02
915             	3.00298872e+02
916             	3.00298857e+02
917             	3.00298872e+02
918             	3.00298857e+02
919             	3.00298872e+02
920             	3.00298858e+02
921             	3.00298873e+02
922             	3.00298858e+02
923             	3.00298873e+02
924             	3.00298858e+02
925             	3.00298874e+02
926             	3.00298859e+02
927             	3.00298875e+02
928             	3.00298860e+02
929             	3.00298875e+02
930             	3.00298860e+02
931             	3.00298875e+02
932             	3.00298860e+02
933             	3.00298875e+02