# Region        : cellZone component_2
# Cells         : 72
# Volume        : 1.26834720e-01
# Time          	volAverage(T)
1               	3.08238987e+02
2               	3.16227205e+02
3               	3.22228966e+02
4               	3.27134674e+02
5               	3.32033955e+02
6               	3.37091416e+02
7               	3.42063272e+02
8               	3.46883317e+02
9               	3.51570436e+02
10              	3.56167538e+02
11              	3.60683917e+02
12              	3.65138537e+02
13              	3.69592582e+02
14              	3.73855391e+02
15              	3.77980313e+02
16              	3.81658800e+02
17              	3.84726625e+02
18              	3.87575266e+02
19              	3.90331584e+02
20              	3.93353973e+02
21              	3.96480424e+02
22              	3.99617658e+02
23              	4.02597011e+02
24              	4.05315842e+02
25              	4.07790725e+02
26              	4.10112182e+02
27              	4.12244521e+02
28              	4.14411522e+02
29              	4.16498302e+02
30              	4.18551292e+02
31              	4.20731998e+02
32              	4.23194906e+02
33              	4.25311549e+02
34              	4.26988810e+02
35              	4.28771394e+02
36              	4.30431406e+02
37              	4.31970515e+02
38              	4.33427738e+02
39              	4.34794643e+02
40              	4.36029058e+02
41              	4.37111120e+02
42              	4.38058543e+02
43              	4.39042077e+02
44              	4.40132091e+02
45              	4.41339452e+02
46              	4.42618472e+02
47              	4.44185071e+02
48              	4.45676567e+02
49              	4.46946579e+02
50              	4.48275457e+02
51              	4.49320652e+02
52              	4.50304375e+02
53              	4.51056491e+02
54              	4.51616525e+02
55              	4.52026719e+02
56              	4.52370347e+02
57              	4.52768453e+02
58              	4.53200908e+02
59              	4.53707045e+02
60              	4.54262358e+02
61              	4.54928498e+02
62              	4.55795590e+02
63              	4.56910994e+02
64              	4.58079953e+02
65              	4.59119380e+02
66              	4.60080113e+02
67              	4.60879996e+02
68              	4.61602487e+02
69              	4.62244183e+02
70              	4.62776606e+02
71              	4.63182325e+02
72              	4.63428841e+02
73              	4.63781712e+02
74              	4.64260798e+02
75              	4.64849018e+02
76              	4.65590213e+02
77              	4.66431855e+02
78              	4.67289667e+02
79              	4.68189588e+02
80              	4.69063622e+02
81              	4.69784312e+02
82              	4.70310401e+02
83              	4.70739076e+02
84              	4.71010536e+02
85              	4.71304041e+02
86              	4.71637392e+02
87              	4.72034089e+02
88              	4.72461881e+02
89              	4.72919915e+02
90              	4.73446548e+02
91              	4.73993431e+02
92              	4.74489593e+02
93              	4.74828931e+02
94              	4.75035986e+02
95              	4.75160923e+02
96              	4.75224552e+02
97              	4.75280144e+02
98              	4.75382064e+02
99              	4.75493500e+02
100             	4.75633238e+02
101             	4.75817020e+02
102             	4.76048210e+02
103             	4.76339530e+02
104             	4.76685748e+02
105             	4.77053384e+02
106             	4.77434288e+02
107             	4.77796001e+02
108             	4.78136649e+02
109             	4.78442275e+02
110             	4.78719531e+02
111             	4.78963606e+02
112             	4.79128979e+02
113             	4.79215984e+02
114             	4.79237724e+02
115             	4.79228111e+02
116             	4.79224768e+02
117             	4.79267826e+02
118             	4.79371930e+02
119             	4.79548792e+02
120             	4.79807514e+02
121             	4.80133785e+02
122             	4.80414447e+02
123             	4.80702182e+02
124             	4.80983238e+02
125             	4.81237307e+02
126             	4.81433420e+02
127             	4.81574371e+02
128             	4.81671657e+02
129             	4.81733545e+02
130             	4.81761337e+02
131             	4.81762324e+02
132             	4.81740925e+02
133             	4.81699284e+02
134             	4.81644010e+02
135             	4.81592871e+02
136             	4.81563773e+02
137             	4.81561553e+02
138             	4.81577643e+02
139             	4.81606055e+02
140             	4.81645325e+02
141             	4.81698372e+02
142             	4.81766026e+02
143             	4.81822512e+02
144             	4.81858511e+02
145             	4.81893039e+02
146             	4.81916536e+02
147             	4.81917662e+02
148             	4.81896512e+02
149             	4.81853470e+02
150             	4.81789166e+02
151             	4.81704946e+02
152             	4.81616545e+02
153             	4.81526375e+02
154             	4.81449532e+02
155             	4.81397919e+02
156             	4.81360937e+02
157             	4.81349641e+02
158             	4.81358206e+02
159             	4.81364657e+02
160             	4.81375269e+02
161             	4.81373719e+02
162             	4.81358890e+02
163             	4.81321108e+02
164             	4.81261576e+02
165             	4.81182159e+02
166             	4.81088486e+02
167             	4.80984236e+02
168             	4.80878064e+02
169             	4.80772358e+02
170             	4.80678948e+02
171             	4.80593510e+02
172             	4.80521041e+02
173             	4.80464469e+02
174             	4.80414832e+02
175             	4.80370566e+02
176             	4.80332414e+02
177             	4.80288084e+02
178             	4.80233359e+02
179             	4.80165564e+02
180             	4.80084448e+02
181             	4.79991379e+02
182             	4.79885335e+02
183             	4.79768480e+02
184             	4.79643350e+02
185             	4.79511596e+02
186             	4.79375229e+02
187             	4.79254163e+02
188             	4.79145064e+02
189             	4.79046149e+02
190             	4.78957880e+02
191             	4.78880984e+02
192             	4.78807277e+02
193             	4.78737171e+02
194             	4.78665148e+02
195             	4.78592795e+02
196             	4.78511636e+02
197             	4.78423170e+02
198             	4.78328040e+02
199             	4.78222222e+02
200             	4.78106839e+02
201             	4.77983118e+02
202             	4.77852356e+02
203             	4.77717107e+02
204             	4.77579391e+02
205             	4.77446654e+02
206             	4.77322720e+02
207             	4.77205103e+02
208             	4.77095355e+02
209             	4.76993998e+02
210             	4.76901833e+02
211             	4.76815638e+02
212             	4.76732889e+02
213             	4.76650073e+02
214             	4.76561890e+02
215             	4.76465544e+02
216             	4.76364859e+02
217             	4.76260550e+02
218             	4.76152315e+02
219             	4.76039207e+02
220             	4.75921829e+02
221             	4.75803617e+02
222             	4.75688269e+02
223             	4.75574071e+02
224             	4.75462258e+02
225             	4.75354407e+02
226             	4.75250461e+02
227             	4.75150600e+02
228             	4.75054682e+02
229             	4.74962229e+02
230             	4.74872196e+02
231             	4.74784061e+02
232             	4.74698158e+02
233             	4.74614108e+02
234             	4.74531161e+02
235             	4.74448487e+02
236             	4.74367144e+02
237             	4.74282428e+02
238             	4.74198445e+02
239             	4.74115276e+02
240             	4.74032057e+02
241             	4.73947913e+02
242             	4.73862200e+02
243             	4.73774205e+02
244             	4.73683829e+02
245             	4.73590857e+02
246             	4.73500650e+02
247             	4.73415394e+02
248             	4.73332047e+02
249             	4.73251805e+02
250             	4.73176684e+02
251             	4.73105500e+02
252             	4.73037006e+02
253             	4.72969561e+02
254             	4.72901016e+02
255             	4.72831113e+02
256             	4.72759350e+02
257             	4.72685291e+02
258             	4.72608585e+02
259             	4.72529229e+02
260             	4.72448783e+02
261             	4.72368363e+02
262             	4.72288686e+02
263             	4.72209718e+02
264             	4.72132579e+02
265             	4.72058122e+02
266             	4.71985603e+02
267             	4.71915369e+02
268             	4.71846198e+02
269             	4.71777851e+02
270             	4.71709963e+02
271             	4.71642396e+02
272             	4.71575635e+02
273             	4.71509438e+02
274             	4.71444637e+02
275             	4.71382410e+02
276             	4.71321405e+02
277             	4.71260953e+02
278             	4.71200867e+02
279             	4.71140957e+02
280             	4.71080241e+02
281             	4.71019177e+02
282             	4.70957643e+02
283             	4.70895553e+02
284             	4.70833068e+02
285             	4.70769871e+02
286             	4.70706224e+02
287             	4.70643042e+02
288             	4.70581933e+02
289             	4.70522093e+02
290             	4.70463981e+02
291             	4.70407579e+02
292             	4.70353389e+02
293             	4.70300411e+02
294             	4.70248359e+02
295             	4.70197078e+02
296             	4.70146232e+02
297             	4.70095314e+02
298             	4.70043998e+02
299             	4.69992427e+02
300             	4.69940792e+02
301             	4.69889487e+02
302             	4.69838500e+02
303             	4.69787868e+02
304             	4.69737794e+02
305             	4.69688365e+02
306             	4.69639614e+02
307             	4.69591399e+02
308             	4.69543854e+02
309             	4.69496857e+02
310             	4.69450093e+02
311             	4.69404136e+02
312             	4.69358466e+02
313             	4.69313126e+02
314             	4.69268312e+02
315             	4.69223672e+02
316             	4.69179053e+02
317             	4.69134386e+02
318             	4.69089639e+02
319             	4.69044899e+02
320             	4.69000459e+02
321             	4.68957350e+02
322             	4.68914989e+02
323             	4.68873622e+02
324             	4.68833683e+02
325             	4.68795462e+02
326             	4.68758338e+02
327             	4.68721676e+02
328             	4.68685776e+02
329             	4.68650258e+02
330             	4.68614653e+02
331             	4.68578729e+02
332             	4.68542684e+02
333             	4.68506867e+02
334             	4.68471205e+02
335             	4.68435769e+02
336             	4.68400629e+02
337             	4.68365835e+02
338             	4.68331342e+02
339             	4.68297154e+02
340             	4.68262900e+02
341             	4.68229168e+02
342             	4.68195968e+02
343             	4.68163070e+02
344             	4.68130588e+02
345             	4.68098528e+02
346             	4.68066593e+02
347             	4.68034788e+02
348             	4.68003613e+02
349             	4.67973030e+02
350             	4.67942980e+02
351             	4.67913566e+02
352             	4.67884840e+02
353             	4.67856794e+02
354             	4.67829501e+02
355             	4.67802807e+02
356             	4.67776143e+02
357             	4.67749713e+02
358             	4.67723448e+02
359             	4.67697066e+02
360             	4.67670526e+02
361             	4.67643909e+02
362             	4.67617134e+02
363             	4.67590281e+02
364             	4.67563374e+02
365             	4.67537074e+02
366             	4.67511161e+02
367             	4.67485620e+02
368             	4.67460637e+02
369             	4.67436806e+02
370             	4.67413897e+02
371             	4.67391807e+02
372             	4.67370471e+02
373             	4.67349753e+02
374             	4.67329156e+02
375             	4.67308834e+02
376             	4.67288180e+02
377             	4.67267354e+02
378             	4.67246415e+02
379             	4.67225373e+02
380             	4.67204133e+02
381             	4.67183065e+02
382             	4.67161937e+02
383             	4.67141191e+02
384             	4.67120724e+02
385             	4.67100786e+02
386             	4.67081366e+02
387             	4.67062524e+02
388             	4.67044290e+02
389             	4.67026494e+02
390             	4.67009097e+02
391             	4.66991855e+02
392             	4.66974815e+02
393             	4.66957936e+02
394             	4.66941160e+02
395             	4.66924426e+02
396             	4.66907662e+02
397             	4.66890928e+02
398             	4.66874290e+02
399             	4.66857839e+02
400             	4.66841628e+02
401             	4.66825856e+02
402             	4.66810586e+02
403             	4.66795713e+02
404             	4.66781204e+02
405             	4.66766932e+02
406             	4.66752682e+02
407             	4.66738332e+02
408             	4.66723968e+02
409             	4.66709584e+02
410             	4.66695214e+02
411             	4.66680884e+02
412             	4.66666540e+02
413             	4.66652239e+02
414             	4.66638042e+02
415             	4.66624117e+02
416             	4.66610431e+02
417             	4.66596984e+02
418             	4.66583799e+02
419             	4.66570949e+02
420             	4.66558406e+02
421             	4.66546149e+02
422             	4.66534153e+02
423             	4.66522365e+02
424             	4.66510790e+02
425             	4.66499421e+02
426             	4.66488190e+02
427             	4.66477092e+02
428             	4.66466190e+02
429             	4.66455460e+02
430             	4.66444951e+02
431             	4.66434595e+02
432             	4.66424466e+02
433             	4.66414534e+02
434             	4.66404766e+02
435             	4.66395110e+02
436             	4.66385556e+02
437             	4.66376057e+02
438             	4.66366600e+02
439             	4.66357207e+02
440             	4.66347837e+02
441             	4.66338527e+02
442             	4.66329306e+02
443             	4.66320215e+02
444             	4.66311252e+02
445             	4.66302435e+02
446             	4.66293749e+02
447             	4.66285229e+02
448             	4.66276883e+02
449             	4.66268712e+02
450             	4.66260722e+02
451             	4.66252892e+02
452             	4.66245196e+02
453             	4.66237596e+02
454             	4.66230065e+02
455             	4.66222571e+02
456             	4.66215094e+02
457             	4.66207638e+02
458             	4.66200199e+02
459             	4.66192806e+02
460             	4.66185453e+02
461             	4.66178175e+02
462             	4.66170979e+02
463             	4.66163879e+02
464             	4.66156925e+02
465             	4.66150101e+02
466             	4.66143395e+02
467             	4.66136796e+02
468             	4.66130274e+02
469             	4.66123809e+02
470             	4.66117379e+02
471             	4.66110974e+02
472             	4.66104564e+02
473             	4.66098155e+02
474             	4.66091834e+02
475             	4.66085893e+02
476             	4.66080189e+02
477             	4.66074690e+02
478             	4.66069446e+02
479             	4.66064488e+02
480             	4.66059807e+02
481             	4.66055271e+02
482             	4.66050928e+02
483             	4.66046361e+02
484             	4.66041695e+02
485             	4.66036955e+02
486             	4.66032042e+02
487             	4.66027036e+02
488             	4.66021828e+02
489             	4.66016486e+02
490             	4.66011071e+02
491             	4.66005780e+02
492             	4.66000541e+02
493             	4.65995446e+02
494             	4.65990532e+02
495             	4.65985843e+02
496             	4.65981362e+02
497             	4.65977112e+02
498             	4.65973080e+02
499             	4.65969226e+02
500             	4.65965502e+02
501             	4.65961862e+02
502             	4.65958264e+02
503             	4.65954650e+02
504             	4.65951030e+02
505             	4.65947437e+02
506             	4.65943881e+02
507             	4.65940370e+02
508             	4.65936923e+02
509             	4.65933578e+02
510             	4.65930292e+02
511             	4.65927206e+02
512             	4.65924256e+02
513             	4.65921422e+02
514             	4.65918680e+02
515             	4.65916072e+02
516             	4.65913528e+02
517             	4.65911070e+02
518             	4.65908667e+02
519             	4.65906338e+02
520             	4.65903864e+02
521             	4.65901380e+02
522             	4.65898899e+02
523             	4.65896402e+02
524             	4.65893905e+02
525             	4.65891381e+02
526             	4.65888836e+02
527             	4.65886273e+02
528             	4.65883697e+02
529             	4.65881099e+02
530             	4.65878459e+02
531             	4.65875856e+02
532             	4.65873214e+02
533             	4.65870571e+02
534             	4.65867960e+02
535             	4.65865401e+02
536             	4.65862897e+02
537             	4.65860478e+02
538             	4.65858159e+02
539             	4.65855912e+02
540             	4.65853731e+02
541             	4.65851579e+02
542             	4.65849474e+02
543             	4.65847404e+02
544             	4.65845336e+02
545             	4.65843425e+02
546             	4.65841620e+02
547             	4.65839916e+02
548             	4.65838335e+02
549             	4.65836828e+02
550             	4.65835460e+02
551             	4.65834209e+02
552             	4.65833072e+02
553             	4.65832033e+02
554             	4.65831085e+02
555             	4.65829926e+02
556             	4.65828668e+02
557             	4.65827328e+02
558             	4.65825883e+02
559             	4.65824310e+02
560             	4.65822628e+02
561             	4.65820839e+02
562             	4.65818966e+02
563             	4.65817061e+02
564             	4.65815179e+02
565             	4.65813337e+02
566             	4.65811567e+02
567             	4.65809932e+02
568             	4.65808424e+02
569             	4.65807050e+02
570             	4.65805771e+02
571             	4.65804562e+02
572             	4.65803406e+02
573             	4.65802299e+02
574             	4.65801200e+02
575             	4.65800109e+02
576             	4.65799020e+02
577             	4.65797946e+02
578             	4.65796896e+02
579             	4.65795873e+02
580             	4.65794881e+02
581             	4.65793862e+02
582             	4.65792871e+02
583             	4.65791909e+02
584             	4.65790972e+02
585             	4.65790063e+02
586             	4.65789178e+02
587             	4.65788311e+02
588             	4.65787454e+02
589             	4.65786579e+02
590             	4.65785678e+02
591             	4.65784726e+02
592             	4.65783716e+02
593             	4.65782670e+02
594             	4.65781589e+02
595             	4.65780558e+02
596             	4.65779592e+02
597             	4.65778656e+02
598             	4.65777768e+02
599             	4.65776908e+02
600             	4.65776090e+02
601             	4.65775303e+02
602             	4.65774546e+02
603             	4.65773808e+02
604             	4.65773059e+02
605             	4.65772266e+02
606             	4.65771418e+02
607             	4.65770521e+02
608             	4.65769571e+02
609             	4.65768586e+02
610             	4.65767568e+02
611             	4.65766522e+02
612             	4.65765463e+02
613             	4.65764409e+02
614             	4.65763332e+02
615             	4.65762261e+02
616             	4.65761195e+02
617             	4.65760165e+02
618             	4.65759165e+02
619             	4.65758222e+02
620             	4.65757299e+02
621             	4.65756408e+02
622             	4.65755520e+02
623             	4.65754639e+02
624             	4.65753745e+02
625             	4.65752857e+02
626             	4.65751941e+02
627             	4.65751046e+02
628             	4.65750124e+02
629             	4.65749269e+02
630             	4.65748417e+02
631             	4.65747599e+02
632             	4.65746808e+02
633             	4.65746054e+02
634             	4.65745324e+02
635             	4.65744634e+02
636             	4.65744028e+02
637             	4.65743480e+02
638             	4.65742970e+02
639             	4.65742485e+02
640             	4.65742018e+02
641             	4.65741559e+02
642             	4.65741105e+02
643             	4.65740661e+02
644             	4.65740222e+02
645             	4.65739788e+02
646             	4.65739362e+02
647             	4.65738932e+02
648             	4.65738512e+02
649             	4.65738101e+02
650             	4.65737699e+02
651             	4.65737300e+02
652             	4.65736901e+02
653             	4.65736499e+02
654             	4.65736089e+02
655             	4.65735676e+02
656             	4.65735249e+02
657             	4.65734812e+02
658             	4.65734357e+02
659             	4.65733889e+02
660             	4.65733403e+02
661             	4.65732904e+02
662             	4.65732395e+02
663             	4.65731879e+02
664             	4.65731358e+02
665             	4.65730835e+02
666             	4.65730313e+02
667             	4.65729794e+02
668             	4.65729281e+02
669             	4.65728775e+02
670             	4.65728281e+02
671             	4.65727790e+02
672             	4.65727318e+02
673             	4.65726861e+02
674             	4.65726421e+02
675             	4.65725991e+02
676             	4.65725572e+02
677             	4.65725166e+02
678             	4.65724776e+02
679             	4.65724400e+02
680             	4.65724038e+02
681             	4.65723699e+02
682             	4.65723372e+02
683             	4.65723048e+02
684             	4.65722735e+02
685             	4.65722428e+02
686             	4.65722129e+02
687             	4.65721840e+02
688             	4.65721570e+02
689             	4.65721314e+02
690             	4.65721071e+02
691             	4.65720842e+02
692             	4.65720627e+02
693             	4.65720426e+02
694             	4.65720240e+02
695             	4.65720071e+02
696             	4.65719918e+02
697             	4.65719780e+02
698             	4.65719651e+02
699             	4.65719533e+02
700             	4.65719419e+02
701             	4.65719313e+02
702             	4.65719210e+02
703             	4.65719114e+02
704             	4.65719017e+02
705             	4.65718923e+02
706             	4.65718828e+02
707             	4.65718732e+02
708             	4.65718626e+02
709             	4.65718513e+02
710             	4.65718388e+02
711             	4.65718252e+02
712             	4.65718103e+02
713             	4.65717931e+02
714             	4.65717750e+02
715             	4.65717557e+02
716             	4.65717356e+02
717             	4.65717145e+02
718             	4.65716927e+02
719             	4.65716702e+02
720             	4.65716472e+02
721             	4.65716240e+02
722             	4.65716006e+02
723             	4.65715774e+02
724             	4.65715543e+02
725             	4.65715314e+02
726             	4.65715088e+02
727             	4.65714870e+02
728             	4.65714659e+02
729             	4.65714455e+02
730             	4.65714261e+02
731             	4.65714071e+02
732             	4.65713890e+02
733             	4.65713713e+02
734             	4.65713542e+02
735             	4.65713373e+02
736             	4.65713204e+02
737             	4.65713033e+02
738             	4.65712861e+02
739             	4.65712686e+02
740             	4.65712512e+02
741             	4.65712339e+02
742             	4.65712168e+02
743             	4.65711997e+02
744             	4.65711828e+02
745             	4.65711660e+02
746             	4.65711494e+02
747             	4.65711333e+02
748             	4.65711172e+02
749             	4.65711015e+02
750             	4.65710851e+02
751             	4.65710681e+02
752             	4.65710501e+02
753             	4.65710315e+02
754             	4.65710119e+02
755             	4.65709909e+02
756             	4.65709690e+02
757             	4.65709465e+02
758             	4.65709233e+02
759             	4.65708995e+02
760             	4.65708748e+02
761             	4.65708490e+02
762             	4.65708229e+02
763             	4.65707963e+02
764             	4.65707701e+02
765             	4.65707436e+02
766             	4.65707173e+02
767             	4.65706909e+02
768             	4.65706649e+02
769             	4.65706386e+02
770             	4.65706125e+02
771             	4.65705861e+02
772             	4.65705600e+02
773             	4.65705336e+02
774             	4.65705078e+02
775             	4.65704825e+02
776             	4.65704583e+02
777             	4.65704354e+02
778             	4.65704136e+02
779             	4.65703920e+02
780             	4.65703720e+02
781             	4.65703526e+02
782             	4.65703345e+02
783             	4.65703174e+02
784             	4.65703013e+02
785             	4.65702858e+02
786             	4.65702713e+02
787             	4.65702577e+02
788             	4.65702451e+02
789             	4.65702334e+02
790             	4.65702225e+02
791             	4.65702123e+02
792             	4.65702029e+02
793             	4.65701943e+02
794             	4.65701864e+02
795             	4.65701799e+02
796             	4.65701745e+02
797             	4.65701706e+02
798             	4.65701678e+02
799             	4.65701651e+02
800             	4.65701634e+02
801             	4.65701626e+02
802             	4.65701625e+02
803             	4.65701633e+02
804             	4.65701651e+02
805             	4.65701681e+02
806             	4.65701715e+02
807             	4.65701756e+02
808             	4.65701801e+02
809             	4.65701855e+02
810             	4.65701912e+02
811             	4.65701973e+02
812             	4.65702040e+02
813             	4.65702110e+02
814             	4.65702185e+02
815             	4.65702283e+02
816             	4.65702389e+02
817             	4.65702510e+02
818             	4.65702650e+02
819             	4.65702805e+02
820             	4.65702975e+02
821             	4.65703161e+02
822             	4.65703365e+02
823             	4.65703589e+02
824             	4.65703831e+02
825             	4.65704078e+02
826             	4.65704335e+02
827             	4.65704593e+02
828             	4.65704852e+02
829             	4.65705100e+02
830             	4.65705342e+02
831             	4.65705578e+02
832             	4.65705803e+02
833             	4.65706024e+02
834             	4.65706232e+02
835             	4.65706434e+02
836             	4.65706623e+02
837             	4.65706812e+02
838             	4.65706987e+02
839             	4.65707146e+02
840             	4.65707293e+02
841             	4.65707465e+02
842             	4.65707615e+02
843             	4.65707755e+02
844             	4.65707890e+02
845             	4.65708014e+02
846             	4.65708125e+02
847             	4.65708219e+02
848             	4.65708314e+02
849             	4.65708412e+02
850             	4.65708523e+02
851             	4.65708648e+02
852             	4.65708794e+02
853             	4.65708932e+02
854             	4.65709077e+02
855             	4.65709218e+02
856             	4.65709352e+02
857             	4.65709485e+02
858             	4.65709621e+02
859             	4.65709767e+02
860             	4.65709900e+02
861             	4.65710013e+02
862             	4.65710108e+02
863             	4.65710178e+02
864             	4.65710232e+02
865             	4.65710261e+02
866             	4.65710273e+02
867             	4.65710279e+02
868             	4.65710300e+02
869             	4.65710339e+02
870             	4.65710402e+02
871             	4.65710489e+02
872             	4.65710597e+02
873             	4.65710729e+02
874             	4.65710876e+02
875             	4.65711047e+02
876             	4.65711233e+02
877             	4.65711435e+02
878             	4.65711628e+02
879             	4.65711822e+02
880             	4.65712016e+02
881             	4.65712209e+02
882             	4.65712389e+02
883             	4.65712550e+02
884             	4.65712692e+02
885             	4.65712812e+02
886             	4.65712916e+02
887             	4.65712994e+02
888             	4.65713049e+02
889             	4.65713083e+02
890             	4.65713099e+02
891             	4.65713095e+02
892             	4.65713072e+02
893             	4.65713031e+02
894             	4.65712976e+02
895             	4.65712911e+02
896             	4.65712840e+02
897             	4.65712768e+02
898             	4.65712700e+02
899             	4.65712642e+02
900             	4.65712597e+02
901             	4.65712566e+02
902             	4.65712554e+02
903             	4.65712559e+02
904             	4.65712584e+02
905             	4.65712615e+02
906             	4.65712659e+02
907             	4.65712711e+02
908             	4.65712769e+02
909             	4.65712821e+02
910             	4.65712868e+02
911             	4.65712908e+02
912             	4.65712946e+02
913             	4.65712983e+02
914             	4.65713017e+02
915             	4.65713052e+02
916             	4.65713084e+02
917             	4.65713116e+02
918             	4.65713144e+02
919             	4.65713182e+02
920             	4.65713216e+02
921             	4.65713250e+02
922             	4.65713283e+02
923             	4.65713317e+02
924             	4.65713349e+02
925             	4.65713377e+02
926             	4.65713409e+02
927             	4.65713435e+02
928             	4.65713466e+02
929             	4.65713499e+02
930             	4.65713539e+02
931             	4.65713573e+02
932             	4.65713613e+02
933             	4.65713660e+02