# Region        : cellZone fluid
# Cells         : 9094
# Volume        : 1.74974337e+01
# Time          	volAverage(T)
1               	3.00000228e+02
2               	3.00000393e+02
3               	3.00001465e+02
4               	3.00002881e+02
5               	3.00003213e+02
6               	3.00003608e+02
7               	3.00003978e+02
8               	3.00004425e+02
9               	3.00005114e+02
10              	3.00005740e+02
11              	3.00006797e+02
12              	3.00007739e+02
13              	3.00009696e+02
14              	3.00011361e+02
15              	3.00012644e+02
16              	3.00013397e+02
17              	3.00014494e+02
18              	3.00015711e+02
19              	3.00016474e+02
20              	3.00017384e+02
21              	3.00018353e+02
22              	3.00019556e+02
23              	3.00020727e+02
24              	3.00021940e+02
25              	3.00023251e+02
26              	3.00025108e+02
27              	3.00026518e+02
28              	3.00027566e+02
29              	3.00028725e+02
30              	3.00029696e+02
31              	3.00030456e+02
32              	3.00031502e+02
33              	3.00032952e+02
34              	3.00034616e+02
35              	3.00036461e+02
36              	3.00039040e+02
37              	3.00041614e+02
38              	3.00043060e+02
39              	3.00046505e+02
40              	3.00047598e+02
41              	3.00049765e+02
42              	3.00050375e+02
43              	3.00051534e+02
44              	3.00051963e+02
45              	3.00052745e+02
46              	3.00054380e+02
47              	3.00056745e+02
48              	3.00058254e+02
49              	3.00061109e+02
50              	3.00062689e+02
51              	3.00065138e+02
52              	3.00066893e+02
53              	3.00069249e+02
54              	3.00070994e+02
55              	3.00072658e+02
56              	3.00074525e+02
57              	3.00077181e+02
58              	3.00078188e+02
59              	3.00079850e+02
60              	3.00081123e+02
61              	3.00082464e+02
62              	3.00084355e+02
63              	3.00085985e+02
64              	3.00086516e+02
65              	3.00087400e+02
66              	3.00088220e+02
67              	3.00088869e+02
68              	3.00089532e+02
69              	3.00090321e+02
70              	3.00091347e+02
71              	3.00092419e+02
72              	3.00093671e+02
73              	3.00095190e+02
74              	3.00096565e+02
75              	3.00097504e+02
76              	3.00098828e+02
77              	3.00100349e+02
78              	3.00102244e+02
79              	3.00104245e+02
80              	3.00106532e+02
81              	3.00109325e+02
82              	3.00110583e+02
83              	3.00111643e+02
84              	3.00113536e+02
85              	3.00114436e+02
86              	3.00115399e+02
87              	3.00116490e+02
88              	3.00118129e+02
89              	3.00118447e+02
90              	3.00119073e+02
91              	3.00120853e+02
92              	3.00123052e+02
93              	3.00124561e+02
94              	3.00125132e+02
95              	3.00126798e+02
96              	3.00127903e+02
97              	3.00129431e+02
98              	3.00130090e+02
99              	3.00130470e+02
100             	3.00130917e+02
101             	3.00132754e+02
102             	3.00134280e+02
103             	3.00135137e+02
104             	3.00136025e+02
105             	3.00136471e+02
106             	3.00137464e+02
107             	3.00138343e+02
108             	3.00138631e+02
109             	3.00138496e+02
110             	3.00138849e+02
111             	3.00139956e+02
112             	3.00141477e+02
113             	3.00143042e+02
114             	3.00143285e+02
115             	3.00143620e+02
116             	3.00144974e+02
117             	3.00146332e+02
118             	3.00146986e+02
119             	3.00147356e+02
120             	3.00148090e+02
121             	3.00149566e+02
122             	3.00151130e+02
123             	3.00151539e+02
124             	3.00152021e+02
125             	3.00153102e+02
126             	3.00154453e+02
127             	3.00155478e+02
128             	3.00155703e+02
129             	3.00155789e+02
130             	3.00156624e+02
131             	3.00157775e+02
132             	3.00158541e+02
133             	3.00158611e+02
134             	3.00158740e+02
135             	3.00159873e+02
136             	3.00161825e+02
137             	3.00162447e+02
138             	3.00162467e+02
139             	3.00162665e+02
140             	3.00163885e+02
141             	3.00165495e+02
142             	3.00166496e+02
143             	3.00166272e+02
144             	3.00166245e+02
145             	3.00167271e+02
146             	3.00168934e+02
147             	3.00169922e+02
148             	3.00170139e+02
149             	3.00170237e+02
150             	3.00171100e+02
151             	3.00172603e+02
152             	3.00173461e+02
153             	3.00173586e+02
154             	3.00173875e+02
155             	3.00174573e+02
156             	3.00176005e+02
157             	3.00176679e+02
158             	3.00176620e+02
159             	3.00176632e+02
160             	3.00177578e+02
161             	3.00178959e+02
162             	3.00179768e+02
163             	3.00179344e+02
164             	3.00179163e+02
165             	3.00180222e+02
166             	3.00181532e+02
167             	3.00182247e+02
168             	3.00182244e+02
169             	3.00182224e+02
170             	3.00183636e+02
171             	3.00184544e+02
172             	3.00185463e+02
173             	3.00185241e+02
174             	3.00185226e+02
175             	3.00185967e+02
176             	3.00187040e+02
177             	3.00187556e+02
178             	3.00187473e+02
179             	3.00187508e+02
180             	3.00187886e+02
181             	3.00189199e+02
182             	3.00189768e+02
183             	3.00189816e+02
184             	3.00189773e+02
185             	3.00190496e+02
186             	3.00191432e+02
187             	3.00191882e+02
188             	3.00191794e+02
189             	3.00191711e+02
190             	3.00192686e+02
191             	3.00193610e+02
192             	3.00193899e+02
193             	3.00193820e+02
194             	3.00193911e+02
195             	3.00194796e+02
196             	3.00195857e+02
197             	3.00196359e+02
198             	3.00196371e+02
199             	3.00196556e+02
200             	3.00197316e+02
201             	3.00198155e+02
202             	3.00198646e+02
203             	3.00198652e+02
204             	3.00198942e+02
205             	3.00199760e+02
206             	3.00200599e+02
207             	3.00200918e+02
208             	3.00200883e+02
209             	3.00201176e+02
210             	3.00202021e+02
211             	3.00202839e+02
212             	3.00203163e+02
213             	3.00203040e+02
214             	3.00203309e+02
215             	3.00204159e+02
216             	3.00205042e+02
217             	3.00205337e+02
218             	3.00205222e+02
219             	3.00205445e+02
220             	3.00206322e+02
221             	3.00207056e+02
222             	3.00207047e+02
223             	3.00206859e+02
224             	3.00207189e+02
225             	3.00208132e+02
226             	3.00208840e+02
227             	3.00208724e+02
228             	3.00208507e+02
229             	3.00208875e+02
230             	3.00209692e+02
231             	3.00210123e+02
232             	3.00209862e+02
233             	3.00209354e+02
234             	3.00209713e+02
235             	3.00210686e+02
236             	3.00211189e+02
237             	3.00210969e+02
238             	3.00210707e+02
239             	3.00211162e+02
240             	3.00212073e+02
241             	3.00212457e+02
242             	3.00212357e+02
243             	3.00211906e+02
244             	3.00212350e+02
245             	3.00213159e+02
246             	3.00213492e+02
247             	3.00213180e+02
248             	3.00212927e+02
249             	3.00213426e+02
250             	3.00214311e+02
251             	3.00214751e+02
252             	3.00214511e+02
253             	3.00214255e+02
254             	3.00214629e+02
255             	3.00215482e+02
256             	3.00215928e+02
257             	3.00215667e+02
258             	3.00215426e+02
259             	3.00215894e+02
260             	3.00216701e+02
261             	3.00216986e+02
262             	3.00216676e+02
263             	3.00216549e+02
264             	3.00217141e+02
265             	3.00218027e+02
266             	3.00218352e+02
267             	3.00217906e+02
268             	3.00217733e+02
269             	3.00218274e+02
270             	3.00218989e+02
271             	3.00219212e+02
272             	3.00218869e+02
273             	3.00218692e+02
274             	3.00219170e+02
275             	3.00219862e+02
276             	3.00219912e+02
277             	3.00219409e+02
278             	3.00219350e+02
279             	3.00219838e+02
280             	3.00220435e+02
281             	3.00220490e+02
282             	3.00220059e+02
283             	3.00220096e+02
284             	3.00220699e+02
285             	3.00221350e+02
286             	3.00221161e+02
287             	3.00220666e+02
288             	3.00220590e+02
289             	3.00221138e+02
290             	3.00221467e+02
291             	3.00221244e+02
292             	3.00221006e+02
293             	3.00221092e+02
294             	3.00221682e+02
295             	3.00222160e+02
296             	3.00222105e+02
297             	3.00221814e+02
298             	3.00221839e+02
299             	3.00222427e+02
300             	3.00222927e+02
301             	3.00222710e+02
302             	3.00222256e+02
303             	3.00222476e+02
304             	3.00223144e+02
305             	3.00223578e+02
306             	3.00223312e+02
307             	3.00222917e+02
308             	3.00223234e+02
309             	3.00223989e+02
310             	3.00224381e+02
311             	3.00224062e+02
312             	3.00223678e+02
313             	3.00224005e+02
314             	3.00224733e+02
315             	3.00225001e+02
316             	3.00224644e+02
317             	3.00224229e+02
318             	3.00224544e+02
319             	3.00225251e+02
320             	3.00225379e+02
321             	3.00225012e+02
322             	3.00224631e+02
323             	3.00224943e+02
324             	3.00225601e+02
325             	3.00225780e+02
326             	3.00225326e+02
327             	3.00225059e+02
328             	3.00225272e+02
329             	3.00225868e+02
330             	3.00226005e+02
331             	3.00225523e+02
332             	3.00225113e+02
333             	3.00225462e+02
334             	3.00226045e+02
335             	3.00226157e+02
336             	3.00225686e+02
337             	3.00225307e+02
338             	3.00225591e+02
339             	3.00226258e+02
340             	3.00226409e+02
341             	3.00225832e+02
342             	3.00225542e+02
343             	3.00225918e+02
344             	3.00226528e+02
345             	3.00226594e+02
346             	3.00226120e+02
347             	3.00225847e+02
348             	3.00226298e+02
349             	3.00226912e+02
350             	3.00227029e+02
351             	3.00226595e+02
352             	3.00226391e+02
353             	3.00226826e+02
354             	3.00227402e+02
355             	3.00227456e+02
356             	3.00227024e+02
357             	3.00226857e+02
358             	3.00227374e+02
359             	3.00227902e+02
360             	3.00227876e+02
361             	3.00227418e+02
362             	3.00227290e+02
363             	3.00227792e+02
364             	3.00228321e+02
365             	3.00228248e+02
366             	3.00227794e+02
367             	3.00227741e+02
368             	3.00228236e+02
369             	3.00228561e+02
370             	3.00228441e+02
371             	3.00227925e+02
372             	3.00227864e+02
373             	3.00228369e+02
374             	3.00228724e+02
375             	3.00228462e+02
376             	3.00227948e+02
377             	3.00227952e+02
378             	3.00228499e+02
379             	3.00228818e+02
380             	3.00228473e+02
381             	3.00228028e+02
382             	3.00228052e+02
383             	3.00228606e+02
384             	3.00228866e+02
385             	3.00228438e+02
386             	3.00227899e+02
387             	3.00228067e+02
388             	3.00228679e+02
389             	3.00228909e+02
390             	3.00228439e+02
391             	3.00227819e+02
392             	3.00228089e+02
393             	3.00228764e+02
394             	3.00228969e+02
395             	3.00228478e+02
396             	3.00227980e+02
397             	3.00228240e+02
398             	3.00228904e+02
399             	3.00229096e+02
400             	3.00228607e+02
401             	3.00228144e+02
402             	3.00228480e+02
403             	3.00229242e+02
404             	3.00229399e+02
405             	3.00228936e+02
406             	3.00228540e+02
407             	3.00228900e+02
408             	3.00229570e+02
409             	3.00229752e+02
410             	3.00229274e+02
411             	3.00228895e+02
412             	3.00229221e+02
413             	3.00229839e+02
414             	3.00229973e+02
415             	3.00229539e+02
416             	3.00229179e+02
417             	3.00229541e+02
418             	3.00230166e+02
419             	3.00230258e+02
420             	3.00229748e+02
421             	3.00229389e+02
422             	3.00229732e+02
423             	3.00230262e+02
424             	3.00230278e+02
425             	3.00229764e+02
426             	3.00229436e+02
427             	3.00229781e+02
428             	3.00230308e+02
429             	3.00230300e+02
430             	3.00229770e+02
431             	3.00229466e+02
432             	3.00229831e+02
433             	3.00230330e+02
434             	3.00230267e+02
435             	3.00229725e+02
436             	3.00229463e+02
437             	3.00229844e+02
438             	3.00230301e+02
439             	3.00230198e+02
440             	3.00229666e+02
441             	3.00229464e+02
442             	3.00229883e+02
443             	3.00230314e+02
444             	3.00230166e+02
445             	3.00229648e+02
446             	3.00229531e+02
447             	3.00229999e+02
448             	3.00230407e+02
449             	3.00230221e+02
450             	3.00229709e+02
451             	3.00229665e+02
452             	3.00230176e+02
453             	3.00230555e+02
454             	3.00230299e+02
455             	3.00229790e+02
456             	3.00229829e+02
457             	3.00230390e+02
458             	3.00230720e+02
459             	3.00230394e+02
460             	3.00229891e+02
461             	3.00230021e+02
462             	3.00230634e+02
463             	3.00230920e+02
464             	3.00230512e+02
465             	3.00230003e+02
466             	3.00230212e+02
467             	3.00230866e+02
468             	3.00231090e+02
469             	3.00230610e+02
470             	3.00230089e+02
471             	3.00230322e+02
472             	3.00230987e+02
473             	3.00231171e+02
474             	3.00230653e+02
475             	3.00230136e+02
476             	3.00230369e+02
477             	3.00231007e+02
478             	3.00231162e+02
479             	3.00230631e+02
480             	3.00230120e+02
481             	3.00230369e+02
482             	3.00230987e+02
483             	3.00231105e+02
484             	3.00230563e+02
485             	3.00230066e+02
486             	3.00230316e+02
487             	3.00230906e+02
488             	3.00231004e+02
489             	3.00230473e+02
490             	3.00230017e+02
491             	3.00230284e+02
492             	3.00230855e+02
493             	3.00230926e+02
494             	3.00230405e+02
495             	3.00229992e+02
496             	3.00230287e+02
497             	3.00230847e+02
498             	3.00230905e+02
499             	3.00230384e+02
500             	3.00230023e+02
501             	3.00230351e+02
502             	3.00230902e+02
503             	3.00230936e+02
504             	3.00230435e+02
505             	3.00230119e+02
506             	3.00230493e+02
507             	3.00231043e+02
508             	3.00231055e+02
509             	3.00230577e+02
510             	3.00230311e+02
511             	3.00230711e+02
512             	3.00231242e+02
513             	3.00231218e+02
514             	3.00230720e+02
515             	3.00230507e+02
516             	3.00230936e+02
517             	3.00231436e+02
518             	3.00231369e+02
519             	3.00230862e+02
520             	3.00230704e+02
521             	3.00231171e+02
522             	3.00231604e+02
523             	3.00231476e+02
524             	3.00230929e+02
525             	3.00230799e+02
526             	3.00231263e+02
527             	3.00231653e+02
528             	3.00231418e+02
529             	3.00230867e+02
530             	3.00230798e+02
531             	3.00231278e+02
532             	3.00231605e+02
533             	3.00231285e+02
534             	3.00230724e+02
535             	3.00230718e+02
536             	3.00231240e+02
537             	3.00231507e+02
538             	3.00231101e+02
539             	3.00230530e+02
540             	3.00230608e+02
541             	3.00231171e+02
542             	3.00231377e+02
543             	3.00230912e+02
544             	3.00230334e+02
545             	3.00230513e+02
546             	3.00231127e+02
547             	3.00231319e+02
548             	3.00230835e+02
549             	3.00230319e+02
550             	3.00230539e+02
551             	3.00231167e+02
552             	3.00231371e+02
553             	3.00230896e+02
554             	3.00230412e+02
555             	3.00230670e+02
556             	3.00231325e+02
557             	3.00231511e+02
558             	3.00231029e+02
559             	3.00230547e+02
560             	3.00230873e+02
561             	3.00231559e+02
562             	3.00231735e+02
563             	3.00231250e+02
564             	3.00230823e+02
565             	3.00231136e+02
566             	3.00231780e+02
567             	3.00231982e+02
568             	3.00231530e+02
569             	3.00231065e+02
570             	3.00231363e+02
571             	3.00231981e+02
572             	3.00232074e+02
573             	3.00231523e+02
574             	3.00231098e+02
575             	3.00231424e+02
576             	3.00231967e+02
577             	3.00231991e+02
578             	3.00231447e+02
579             	3.00231034e+02
580             	3.00231354e+02
581             	3.00231887e+02
582             	3.00231846e+02
583             	3.00231291e+02
584             	3.00230953e+02
585             	3.00231269e+02
586             	3.00231744e+02
587             	3.00231693e+02
588             	3.00231146e+02
589             	3.00230833e+02
590             	3.00231169e+02
591             	3.00231625e+02
592             	3.00231530e+02
593             	3.00230977e+02
594             	3.00230716e+02
595             	3.00231090e+02
596             	3.00231545e+02
597             	3.00231415e+02
598             	3.00230878e+02
599             	3.00230698e+02
600             	3.00231132e+02
601             	3.00231543e+02
602             	3.00231368e+02
603             	3.00230864e+02
604             	3.00230771e+02
605             	3.00231333e+02
606             	3.00231704e+02
607             	3.00231479e+02
608             	3.00230964e+02
609             	3.00230955e+02
610             	3.00231497e+02
611             	3.00231868e+02
612             	3.00231580e+02
613             	3.00231063e+02
614             	3.00231126e+02
615             	3.00231686e+02
616             	3.00231990e+02
617             	3.00231613e+02
618             	3.00231084e+02
619             	3.00231217e+02
620             	3.00231820e+02
621             	3.00232057e+02
622             	3.00231589e+02
623             	3.00231046e+02
624             	3.00231247e+02
625             	3.00231864e+02
626             	3.00232047e+02
627             	3.00231531e+02
628             	3.00230989e+02
629             	3.00231186e+02
630             	3.00231796e+02
631             	3.00231933e+02
632             	3.00231342e+02
633             	3.00230813e+02
634             	3.00231022e+02
635             	3.00231613e+02
636             	3.00231725e+02
637             	3.00231166e+02
638             	3.00230635e+02
639             	3.00230863e+02
640             	3.00231438e+02
641             	3.00231526e+02
642             	3.00230971e+02
643             	3.00230486e+02
644             	3.00230725e+02
645             	3.00231308e+02
646             	3.00231399e+02
647             	3.00230877e+02
648             	3.00230450e+02
649             	3.00230745e+02
650             	3.00231333e+02
651             	3.00231422e+02
652             	3.00230926e+02
653             	3.00230568e+02
654             	3.00230909e+02
655             	3.00231498e+02
656             	3.00231569e+02
657             	3.00231100e+02
658             	3.00230787e+02
659             	3.00231152e+02
660             	3.00231729e+02
661             	3.00231790e+02
662             	3.00231310e+02
663             	3.00231060e+02
664             	3.00231486e+02
665             	3.00232027e+02
666             	3.00232027e+02
667             	3.00231528e+02
668             	3.00231287e+02
669             	3.00231707e+02
670             	3.00232223e+02
671             	3.00232164e+02
672             	3.00231637e+02
673             	3.00231413e+02
674             	3.00231818e+02
675             	3.00232258e+02
676             	3.00232111e+02
677             	3.00231552e+02
678             	3.00231368e+02
679             	3.00231769e+02
680             	3.00232146e+02
681             	3.00231930e+02
682             	3.00231354e+02
683             	3.00231210e+02
684             	3.00231637e+02
685             	3.00231956e+02
686             	3.00231673e+02
687             	3.00231102e+02
688             	3.00231029e+02
689             	3.00231492e+02
690             	3.00231765e+02
691             	3.00231424e+02
692             	3.00230866e+02
693             	3.00230879e+02
694             	3.00231391e+02
695             	3.00231642e+02
696             	3.00231206e+02
697             	3.00230679e+02
698             	3.00230800e+02
699             	3.00231382e+02
700             	3.00231603e+02
701             	3.00231150e+02
702             	3.00230635e+02
703             	3.00230829e+02
704             	3.00231464e+02
705             	3.00231670e+02
706             	3.00231183e+02
707             	3.00230670e+02
708             	3.00230932e+02
709             	3.00231606e+02
710             	3.00231803e+02
711             	3.00231332e+02
712             	3.00230858e+02
713             	3.00231137e+02
714             	3.00231814e+02
715             	3.00232007e+02
716             	3.00231520e+02
717             	3.00231062e+02
718             	3.00231364e+02
719             	3.00232023e+02
720             	3.00232163e+02
721             	3.00231639e+02
722             	3.00231170e+02
723             	3.00231490e+02
724             	3.00232103e+02
725             	3.00232199e+02
726             	3.00231661e+02
727             	3.00231209e+02
728             	3.00231503e+02
729             	3.00232092e+02
730             	3.00232179e+02
731             	3.00231618e+02
732             	3.00231178e+02
733             	3.00231467e+02
734             	3.00232008e+02
735             	3.00232021e+02
736             	3.00231462e+02
737             	3.00231061e+02
738             	3.00231353e+02
739             	3.00231855e+02
740             	3.00231840e+02
741             	3.00231301e+02
742             	3.00230959e+02
743             	3.00231265e+02
744             	3.00231745e+02
745             	3.00231711e+02
746             	3.00231164e+02
747             	3.00230868e+02
748             	3.00231188e+02
749             	3.00231668e+02
750             	3.00231612e+02
751             	3.00231075e+02
752             	3.00230874e+02
753             	3.00231268e+02
754             	3.00231719e+02
755             	3.00231629e+02
756             	3.00231136e+02
757             	3.00230980e+02
758             	3.00231425e+02
759             	3.00231869e+02
760             	3.00231746e+02
761             	3.00231260e+02
762             	3.00231183e+02
763             	3.00231681e+02
764             	3.00232098e+02
765             	3.00231894e+02
766             	3.00231387e+02
767             	3.00231379e+02
768             	3.00231922e+02
769             	3.00232278e+02
770             	3.00231974e+02
771             	3.00231432e+02
772             	3.00231495e+02
773             	3.00232047e+02
774             	3.00232321e+02
775             	3.00231922e+02
776             	3.00231331e+02
777             	3.00231449e+02
778             	3.00232102e+02
779             	3.00232281e+02
780             	3.00231760e+02
781             	3.00231180e+02
782             	3.00231362e+02
783             	3.00231965e+02
784             	3.00232100e+02
785             	3.00231562e+02
786             	3.00230987e+02
787             	3.00231167e+02
788             	3.00231765e+02
789             	3.00231917e+02
790             	3.00231378e+02
791             	3.00230824e+02
792             	3.00231019e+02
793             	3.00231602e+02
794             	3.00231723e+02
795             	3.00231197e+02
796             	3.00230704e+02
797             	3.00230942e+02
798             	3.00231494e+02
799             	3.00231650e+02
800             	3.00231175e+02
801             	3.00230748e+02
802             	3.00231018e+02
803             	3.00231629e+02
804             	3.00231731e+02
805             	3.00231287e+02
806             	3.00230918e+02
807             	3.00231239e+02
808             	3.00231838e+02
809             	3.00231944e+02
810             	3.00231472e+02
811             	3.00231121e+02
812             	3.00231482e+02
813             	3.00232087e+02
814             	3.00232155e+02
815             	3.00231660e+02
816             	3.00231328e+02
817             	3.00231697e+02
818             	3.00232271e+02
819             	3.00232289e+02
820             	3.00231770e+02
821             	3.00231457e+02
822             	3.00231852e+02
823             	3.00232375e+02
824             	3.00232322e+02
825             	3.00231770e+02
826             	3.00231477e+02
827             	3.00231854e+02
828             	3.00232358e+02
829             	3.00232222e+02
830             	3.00231641e+02
831             	3.00231395e+02
832             	3.00231790e+02
833             	3.00232188e+02
834             	3.00232011e+02
835             	3.00231436e+02
836             	3.00231232e+02
837             	3.00231612e+02
838             	3.00231963e+02
839             	3.00231696e+02
840             	3.00231123e+02
841             	3.00230976e+02
842             	3.00231384e+02
843             	3.00231698e+02
844             	3.00231416e+02
845             	3.00230859e+02
846             	3.00230806e+02
847             	3.00231269e+02
848             	3.00231554e+02
849             	3.00231228e+02
850             	3.00230701e+02
851             	3.00230751e+02
852             	3.00231300e+02
853             	3.00231591e+02
854             	3.00231229e+02
855             	3.00230732e+02
856             	3.00230910e+02
857             	3.00231543e+02
858             	3.00231803e+02
859             	3.00231373e+02
860             	3.00230914e+02
861             	3.00231174e+02
862             	3.00231847e+02
863             	3.00232090e+02
864             	3.00231657e+02
865             	3.00231177e+02
866             	3.00231447e+02
867             	3.00232135e+02
868             	3.00232322e+02
869             	3.00231806e+02
870             	3.00231297e+02
871             	3.00231585e+02
872             	3.00232239e+02
873             	3.00232438e+02
874             	3.00231849e+02
875             	3.00231308e+02
876             	3.00231556e+02
877             	3.00232175e+02
878             	3.00232276e+02
879             	3.00231720e+02
880             	3.00231220e+02
881             	3.00231499e+02
882             	3.00232042e+02
883             	3.00232108e+02
884             	3.00231534e+02
885             	3.00231056e+02
886             	3.00231310e+02
887             	3.00231841e+02
888             	3.00231873e+02
889             	3.00231329e+02
890             	3.00230907e+02
891             	3.00231173e+02
892             	3.00231688e+02
893             	3.00231718e+02
894             	3.00231205e+02
895             	3.00230849e+02
896             	3.00231195e+02
897             	3.00231683e+02
898             	3.00231688e+02
899             	3.00231192e+02
900             	3.00230899e+02
901             	3.00231234e+02
902             	3.00231766e+02
903             	3.00231763e+02
904             	3.00231264e+02
905             	3.00231062e+02
906             	3.00231470e+02
907             	3.00231946e+02
908             	3.00231944e+02
909             	3.00231480e+02
910             	3.00231360e+02
911             	3.00231807e+02
912             	3.00232312e+02
913             	3.00232229e+02
914             	3.00231737e+02
915             	3.00231639e+02
916             	3.00232135e+02
917             	3.00232594e+02
918             	3.00232426e+02
919             	3.00231893e+02
920             	3.00231815e+02
921             	3.00232327e+02
922             	3.00232691e+02
923             	3.00232414e+02
924             	3.00231831e+02
925             	3.00231836e+02
926             	3.00232403e+02
927             	3.00232614e+02
928             	3.00232189e+02
929             	3.00231579e+02
930             	3.00231608e+02
931             	3.00232140e+02
932             	3.00232357e+02
933             	3.00231873e+02