# Region        : cellZone component_0
# Cells         : 189
# Volume        : 3.86189938e-01
# Time          	volAverage(T)
1               	3.00186061e+02
2               	3.00369881e+02
3               	3.00539766e+02
4               	3.00700831e+02
5               	3.00857658e+02
6               	3.01011887e+02
7               	3.01164154e+02
8               	3.01315412e+02
9               	3.01466077e+02
10              	3.01617229e+02
11              	3.01765535e+02
12              	3.01906829e+02
13              	3.02042532e+02
14              	3.02174371e+02
15              	3.02302656e+02
16              	3.02435472e+02
17              	3.02566405e+02
18              	3.02693394e+02
19              	3.02817232e+02
20              	3.02938851e+02
21              	3.03059002e+02
22              	3.03175885e+02
23              	3.03290453e+02
24              	3.03408540e+02
25              	3.03515674e+02
26              	3.03611490e+02
27              	3.03699591e+02
28              	3.03779362e+02
29              	3.03861977e+02
30              	3.03948531e+02
31              	3.04037885e+02
32              	3.04129071e+02
33              	3.04217843e+02
34              	3.04305810e+02
35              	3.04393388e+02
36              	3.04481292e+02
37              	3.04566839e+02
38              	3.04653556e+02
39              	3.04740183e+02
40              	3.04825254e+02
41              	3.04908693e+02
42              	3.04991710e+02
43              	3.05070058e+02
44              	3.05145797e+02
45              	3.05215034e+02
46              	3.05277659e+02
47              	3.05340226e+02
48              	3.05405449e+02
49              	3.05474459e+02
50              	3.05543922e+02
51              	3.05612539e+02
52              	3.05681284e+02
53              	3.05749542e+02
54              	3.05816699e+02
55              	3.05884981e+02
56              	3.05955810e+02
57              	3.06024590e+02
58              	3.06089736e+02
59              	3.06149698e+02
60              	3.06203328e+02
61              	3.06263049e+02
62              	3.06321544e+02
63              	3.06377329e+02
64              	3.06432511e+02
65              	3.06486684e+02
66              	3.06539831e+02
67              	3.06592208e+02
68              	3.06644247e+02
69              	3.06697845e+02
70              	3.06751957e+02
71              	3.06805381e+02
72              	3.06859742e+02
73              	3.06913943e+02
74              	3.06967281e+02
75              	3.07018696e+02
76              	3.07067810e+02
77              	3.07116001e+02
78              	3.07162303e+02
79              	3.07206883e+02
80              	3.07250941e+02
81              	3.07295978e+02
82              	3.07338878e+02
83              	3.07379237e+02
84              	3.07416445e+02
85              	3.07454049e+02
86              	3.07490358e+02
87              	3.07525688e+02
88              	3.07560773e+02
89              	3.07594875e+02
90              	3.07629962e+02
91              	3.07665417e+02
92              	3.07701453e+02
93              	3.07736481e+02
94              	3.07771193e+02
95              	3.07804735e+02
96              	3.07839293e+02
97              	3.07873097e+02
98              	3.07905688e+02
99              	3.07937222e+02
100             	3.07968063e+02
101             	3.07998186e+02
102             	3.08027694e+02
103             	3.08056704e+02
104             	3.08085411e+02
105             	3.08114301e+02
106             	3.08143095e+02
107             	3.08171164e+02
108             	3.08198619e+02
109             	3.08225472e+02
110             	3.08251945e+02
111             	3.08277877e+02
112             	3.08303616e+02
113             	3.08329174e+02
114             	3.08354841e+02
115             	3.08379349e+02
116             	3.08404420e+02
117             	3.08429455e+02
118             	3.08453708e+02
119             	3.08474995e+02
120             	3.08495127e+02
121             	3.08515045e+02
122             	3.08533763e+02
123             	3.08552154e+02
124             	3.08570051e+02
125             	3.08587551e+02
126             	3.08605045e+02
127             	3.08622502e+02
128             	3.08640255e+02
129             	3.08658523e+02
130             	3.08677472e+02
131             	3.08697033e+02
132             	3.08716145e+02
133             	3.08735142e+02
134             	3.08754096e+02
135             	3.08772621e+02
136             	3.08789703e+02
137             	3.08804913e+02
138             	3.08820090e+02
139             	3.08835056e+02
140             	3.08849497e+02
141             	3.08863092e+02
142             	3.08876573e+02
143             	3.08890275e+02
144             	3.08904367e+02
145             	3.08918890e+02
146             	3.08933253e+02
147             	3.08947861e+02
148             	3.08962924e+02
149             	3.08978156e+02
150             	3.08993083e+02
151             	3.09006405e+02
152             	3.09018815e+02
153             	3.09031235e+02
154             	3.09043544e+02
155             	3.09055102e+02
156             	3.09066049e+02
157             	3.09076933e+02
158             	3.09088162e+02
159             	3.09099634e+02
160             	3.09111846e+02
161             	3.09124564e+02
162             	3.09137614e+02
163             	3.09150828e+02
164             	3.09164398e+02
165             	3.09177654e+02
166             	3.09190471e+02
167             	3.09202761e+02
168             	3.09214239e+02
169             	3.09224423e+02
170             	3.09234944e+02
171             	3.09245663e+02
172             	3.09256143e+02
173             	3.09266552e+02
174             	3.09276937e+02
175             	3.09287356e+02
176             	3.09297763e+02
177             	3.09308532e+02
178             	3.09319533e+02
179             	3.09330656e+02
180             	3.09342120e+02
181             	3.09353478e+02
182             	3.09364955e+02
183             	3.09376152e+02
184             	3.09387046e+02
185             	3.09397719e+02
186             	3.09408000e+02
187             	3.09418159e+02
188             	3.09428275e+02
189             	3.09438175e+02
190             	3.09447798e+02
191             	3.09457180e+02
192             	3.09466065e+02
193             	3.09474761e+02
194             	3.09483249e+02
195             	3.09491514e+02
196             	3.09499514e+02
197             	3.09507197e+02
198             	3.09514604e+02
199             	3.09521806e+02
200             	3.09528854e+02
201             	3.09535775e+02
202             	3.09542458e+02
203             	3.09549246e+02
204             	3.09556095e+02
205             	3.09562922e+02
206             	3.09569700e+02
207             	3.09576169e+02
208             	3.09583028e+02
209             	3.09589955e+02
210             	3.09596761e+02
211             	3.09603803e+02
212             	3.09611124e+02
213             	3.09618786e+02
214             	3.09626136e+02
215             	3.09633444e+02
216             	3.09640900e+02
217             	3.09648171e+02
218             	3.09655826e+02
219             	3.09663482e+02
220             	3.09670875e+02
221             	3.09678009e+02
222             	3.09684871e+02
223             	3.09691627e+02
224             	3.09698025e+02
225             	3.09704268e+02
226             	3.09710484e+02
227             	3.09717111e+02
228             	3.09723760e+02
229             	3.09730362e+02
230             	3.09736963e+02
231             	3.09743443e+02
232             	3.09749694e+02
233             	3.09755888e+02
234             	3.09762079e+02
235             	3.09768161e+02
236             	3.09774097e+02
237             	3.09779975e+02
238             	3.09785877e+02
239             	3.09791766e+02
240             	3.09797634e+02
241             	3.09803552e+02
242             	3.09809551e+02
243             	3.09815541e+02
244             	3.09821493e+02
245             	3.09827318e+02
246             	3.09833022e+02
247             	3.09838586e+02
248             	3.09844017e+02
249             	3.09849299e+02
250             	3.09854459e+02
251             	3.09859486e+02
252             	3.09864530e+02
253             	3.09869433e+02
254             	3.09874260e+02
255             	3.09879071e+02
256             	3.09883859e+02
257             	3.09888572e+02
258             	3.09893204e+02
259             	3.09897823e+02
260             	3.09902437e+02
261             	3.09907004e+02
262             	3.09911507e+02
263             	3.09915958e+02
264             	3.09920387e+02
265             	3.09924798e+02
266             	3.09929180e+02
267             	3.09933548e+02
268             	3.09937930e+02
269             	3.09942298e+02
270             	3.09946639e+02
271             	3.09950784e+02
272             	3.09955060e+02
273             	3.09959415e+02
274             	3.09963792e+02
275             	3.09968134e+02
276             	3.09972593e+02
277             	3.09977077e+02
278             	3.09981653e+02
279             	3.09986198e+02
280             	3.09990745e+02
281             	3.09995256e+02
282             	3.09999743e+02
283             	3.10004177e+02
284             	3.10008524e+02
285             	3.10012782e+02
286             	3.10016969e+02
287             	3.10021151e+02
288             	3.10025261e+02
289             	3.10029249e+02
290             	3.10033100e+02
291             	3.10036912e+02
292             	3.10040736e+02
293             	3.10044491e+02
294             	3.10048158e+02
295             	3.10051759e+02
296             	3.10055313e+02
297             	3.10058778e+02
298             	3.10062205e+02
299             	3.10065619e+02
300             	3.10069014e+02
301             	3.10072391e+02
302             	3.10075759e+02
303             	3.10079008e+02
304             	3.10082179e+02
305             	3.10085337e+02
306             	3.10088498e+02
307             	3.10091655e+02
308             	3.10094781e+02
309             	3.10097912e+02
310             	3.10101025e+02
311             	3.10104174e+02
312             	3.10107354e+02
313             	3.10110471e+02
314             	3.10113644e+02
315             	3.10116877e+02
316             	3.10120111e+02
317             	3.10123330e+02
318             	3.10126527e+02
319             	3.10129706e+02
320             	3.10132861e+02
321             	3.10135974e+02
322             	3.10139026e+02
323             	3.10141969e+02
324             	3.10144965e+02
325             	3.10147960e+02
326             	3.10150919e+02
327             	3.10153846e+02
328             	3.10156775e+02
329             	3.10159846e+02
330             	3.10162861e+02
331             	3.10165855e+02
332             	3.10168876e+02
333             	3.10171935e+02
334             	3.10174999e+02
335             	3.10177897e+02
336             	3.10180687e+02
337             	3.10183650e+02
338             	3.10186628e+02
339             	3.10189542e+02
340             	3.10192423e+02
341             	3.10195396e+02
342             	3.10198219e+02
343             	3.10201220e+02
344             	3.10204082e+02
345             	3.10206860e+02
346             	3.10209658e+02
347             	3.10212505e+02
348             	3.10215265e+02
349             	3.10217974e+02
350             	3.10220432e+02
351             	3.10222535e+02
352             	3.10224749e+02
353             	3.10227034e+02
354             	3.10229104e+02
355             	3.10231150e+02
356             	3.10233195e+02
357             	3.10235235e+02
358             	3.10237284e+02
359             	3.10239307e+02
360             	3.10241453e+02
361             	3.10243575e+02
362             	3.10245653e+02
363             	3.10247704e+02
364             	3.10249702e+02
365             	3.10251631e+02
366             	3.10253495e+02
367             	3.10255318e+02
368             	3.10257148e+02
369             	3.10258988e+02
370             	3.10260883e+02
371             	3.10262838e+02
372             	3.10264746e+02
373             	3.10266732e+02
374             	3.10268759e+02
375             	3.10270788e+02
376             	3.10272818e+02
377             	3.10274859e+02
378             	3.10276876e+02
379             	3.10278876e+02
380             	3.10280866e+02
381             	3.10282840e+02
382             	3.10284811e+02
383             	3.10286697e+02
384             	3.10288532e+02
385             	3.10290249e+02
386             	3.10291968e+02
387             	3.10293697e+02
388             	3.10295456e+02
389             	3.10297182e+02
390             	3.10298880e+02
391             	3.10300586e+02
392             	3.10302335e+02
393             	3.10304045e+02
394             	3.10305780e+02
395             	3.10307538e+02
396             	3.10309295e+02
397             	3.10311048e+02
398             	3.10312822e+02
399             	3.10314624e+02
400             	3.10316388e+02
401             	3.10318125e+02
402             	3.10319843e+02
403             	3.10321516e+02
404             	3.10323177e+02
405             	3.10324765e+02
406             	3.10326285e+02
407             	3.10327765e+02
408             	3.10329176e+02
409             	3.10330513e+02
410             	3.10331813e+02
411             	3.10333100e+02
412             	3.10334207e+02
413             	3.10335370e+02
414             	3.10336558e+02
415             	3.10337733e+02
416             	3.10338891e+02
417             	3.10340083e+02
418             	3.10341301e+02
419             	3.10342549e+02
420             	3.10343825e+02
421             	3.10345166e+02
422             	3.10346431e+02
423             	3.10347633e+02
424             	3.10348799e+02
425             	3.10349932e+02
426             	3.10351002e+02
427             	3.10352000e+02
428             	3.10352984e+02
429             	3.10353967e+02
430             	3.10354800e+02
431             	3.10355644e+02
432             	3.10356533e+02
433             	3.10357478e+02
434             	3.10358339e+02
435             	3.10359323e+02
436             	3.10360177e+02
437             	3.10361221e+02
438             	3.10362330e+02
439             	3.10363472e+02
440             	3.10364667e+02
441             	3.10366033e+02
442             	3.10367257e+02
443             	3.10368480e+02
444             	3.10369823e+02
445             	3.10371232e+02
446             	3.10372606e+02
447             	3.10373828e+02
448             	3.10374971e+02
449             	3.10375934e+02
450             	3.10376896e+02
451             	3.10377720e+02
452             	3.10378565e+02
453             	3.10379280e+02
454             	3.10380017e+02
455             	3.10380830e+02
456             	3.10381661e+02
457             	3.10382515e+02
458             	3.10383421e+02
459             	3.10384379e+02
460             	3.10385461e+02
461             	3.10386626e+02
462             	3.10387834e+02
463             	3.10389216e+02
464             	3.10390436e+02
465             	3.10391593e+02
466             	3.10392733e+02
467             	3.10393834e+02
468             	3.10394755e+02
469             	3.10395612e+02
470             	3.10396384e+02
471             	3.10397031e+02
472             	3.10397540e+02
473             	3.10398044e+02
474             	3.10398478e+02
475             	3.10398854e+02
476             	3.10399169e+02
477             	3.10399494e+02
478             	3.10399837e+02
479             	3.10400030e+02
480             	3.10400333e+02
481             	3.10400713e+02
482             	3.10401133e+02
483             	3.10401610e+02
484             	3.10402099e+02
485             	3.10402622e+02
486             	3.10403200e+02
487             	3.10403802e+02
488             	3.10404505e+02
489             	3.10405271e+02
490             	3.10406255e+02
491             	3.10407128e+02
492             	3.10407953e+02
493             	3.10408796e+02
494             	3.10409699e+02
495             	3.10410647e+02
496             	3.10411574e+02
497             	3.10412297e+02
498             	3.10412977e+02
499             	3.10413640e+02
500             	3.10414396e+02
501             	3.10414997e+02
502             	3.10415483e+02
503             	3.10416044e+02
504             	3.10416562e+02
505             	3.10416946e+02
506             	3.10417382e+02
507             	3.10417938e+02
508             	3.10418514e+02
509             	3.10419065e+02
510             	3.10419632e+02
511             	3.10420229e+02
512             	3.10420851e+02
513             	3.10421516e+02
514             	3.10422155e+02
515             	3.10422859e+02
516             	3.10423598e+02
517             	3.10424371e+02
518             	3.10425145e+02
519             	3.10425902e+02
520             	3.10426601e+02
521             	3.10427398e+02
522             	3.10427992e+02
523             	3.10428444e+02
524             	3.10428781e+02
525             	3.10428919e+02
526             	3.10429020e+02
527             	3.10429299e+02
528             	3.10429520e+02
529             	3.10429706e+02
530             	3.10429963e+02
531             	3.10430367e+02
532             	3.10430781e+02
533             	3.10431055e+02
534             	3.10431376e+02
535             	3.10431697e+02
536             	3.10431980e+02
537             	3.10432254e+02
538             	3.10432572e+02
539             	3.10432915e+02
540             	3.10433286e+02
541             	3.10433700e+02
542             	3.10434177e+02
543             	3.10434748e+02
544             	3.10435321e+02
545             	3.10435900e+02
546             	3.10436482e+02
547             	3.10437046e+02
548             	3.10437518e+02
549             	3.10438051e+02
550             	3.10438594e+02
551             	3.10439107e+02
552             	3.10439604e+02
553             	3.10440083e+02
554             	3.10440522e+02
555             	3.10440914e+02
556             	3.10441280e+02
557             	3.10441634e+02
558             	3.10441981e+02
559             	3.10442330e+02
560             	3.10442678e+02
561             	3.10443075e+02
562             	3.10443453e+02
563             	3.10443839e+02
564             	3.10444193e+02
565             	3.10444543e+02
566             	3.10444878e+02
567             	3.10445187e+02
568             	3.10445538e+02
569             	3.10445804e+02
570             	3.10446006e+02
571             	3.10446164e+02
572             	3.10446264e+02
573             	3.10446367e+02
574             	3.10446449e+02
575             	3.10446515e+02
576             	3.10446596e+02
577             	3.10446692e+02
578             	3.10446851e+02
579             	3.10447032e+02
580             	3.10447264e+02
581             	3.10447485e+02
582             	3.10447767e+02
583             	3.10448101e+02
584             	3.10448434e+02
585             	3.10448810e+02
586             	3.10449221e+02
587             	3.10449662e+02
588             	3.10450124e+02
589             	3.10450602e+02
590             	3.10451098e+02
591             	3.10451618e+02
592             	3.10452118e+02
593             	3.10452586e+02
594             	3.10453031e+02
595             	3.10453570e+02
596             	3.10454014e+02
597             	3.10454424e+02
598             	3.10454842e+02
599             	3.10455234e+02
600             	3.10455671e+02
601             	3.10456046e+02
602             	3.10456469e+02
603             	3.10456883e+02
604             	3.10457131e+02
605             	3.10457381e+02
606             	3.10457635e+02
607             	3.10457933e+02
608             	3.10458158e+02
609             	3.10458333e+02
610             	3.10458538e+02
611             	3.10458770e+02
612             	3.10459017e+02
613             	3.10459290e+02
614             	3.10459549e+02
615             	3.10459885e+02
616             	3.10460237e+02
617             	3.10460586e+02
618             	3.10460982e+02
619             	3.10461478e+02
620             	3.10461961e+02
621             	3.10462390e+02
622             	3.10462810e+02
623             	3.10463236e+02
624             	3.10463606e+02
625             	3.10463844e+02
626             	3.10464107e+02
627             	3.10464375e+02
628             	3.10464594e+02
629             	3.10464892e+02
630             	3.10465175e+02
631             	3.10465330e+02
632             	3.10465451e+02
633             	3.10465604e+02
634             	3.10465770e+02
635             	3.10465928e+02
636             	3.10466073e+02
637             	3.10466167e+02
638             	3.10466325e+02
639             	3.10466533e+02
640             	3.10466763e+02
641             	3.10467010e+02
642             	3.10467278e+02
643             	3.10467569e+02
644             	3.10467885e+02
645             	3.10468220e+02
646             	3.10468555e+02
647             	3.10468907e+02
648             	3.10469395e+02
649             	3.10469771e+02
650             	3.10470095e+02
651             	3.10470394e+02
652             	3.10470648e+02
653             	3.10470864e+02
654             	3.10470958e+02
655             	3.10471140e+02
656             	3.10471331e+02
657             	3.10471494e+02
658             	3.10471664e+02
659             	3.10471909e+02
660             	3.10472181e+02
661             	3.10472526e+02
662             	3.10472889e+02
663             	3.10473220e+02
664             	3.10473578e+02
665             	3.10473942e+02
666             	3.10474348e+02
667             	3.10474794e+02
668             	3.10475207e+02
669             	3.10475565e+02
670             	3.10476004e+02
671             	3.10476333e+02
672             	3.10476600e+02
673             	3.10476866e+02
674             	3.10477137e+02
675             	3.10477422e+02
676             	3.10477739e+02
677             	3.10478058e+02
678             	3.10478347e+02
679             	3.10478611e+02
680             	3.10478824e+02
681             	3.10479005e+02
682             	3.10479186e+02
683             	3.10479349e+02
684             	3.10479495e+02
685             	3.10479656e+02
686             	3.10479818e+02
687             	3.10479894e+02
688             	3.10480023e+02
689             	3.10480126e+02
690             	3.10480228e+02
691             	3.10480316e+02
692             	3.10480369e+02
693             	3.10480376e+02
694             	3.10480418e+02
695             	3.10480485e+02
696             	3.10480537e+02
697             	3.10480561e+02
698             	3.10480567e+02
699             	3.10480576e+02
700             	3.10480561e+02
701             	3.10480509e+02
702             	3.10480438e+02
703             	3.10480437e+02
704             	3.10480404e+02
705             	3.10480359e+02
706             	3.10480337e+02
707             	3.10480319e+02
708             	3.10480270e+02
709             	3.10480239e+02
710             	3.10480244e+02
711             	3.10480266e+02
712             	3.10480296e+02
713             	3.10480360e+02
714             	3.10480488e+02
715             	3.10480609e+02
716             	3.10480734e+02
717             	3.10480877e+02
718             	3.10481047e+02
719             	3.10481213e+02
720             	3.10481354e+02
721             	3.10481476e+02
722             	3.10481596e+02
723             	3.10481794e+02
724             	3.10481963e+02
725             	3.10482136e+02
726             	3.10482329e+02
727             	3.10482603e+02
728             	3.10482931e+02
729             	3.10483344e+02
730             	3.10483568e+02
731             	3.10483876e+02
732             	3.10484212e+02
733             	3.10484520e+02
734             	3.10484801e+02
735             	3.10485071e+02
736             	3.10485353e+02
737             	3.10485831e+02
738             	3.10486122e+02
739             	3.10486325e+02
740             	3.10486502e+02
741             	3.10486694e+02
742             	3.10486849e+02
743             	3.10486953e+02
744             	3.10486985e+02
745             	3.10486919e+02
746             	3.10486854e+02
747             	3.10486805e+02
748             	3.10486743e+02
749             	3.10486659e+02
750             	3.10486571e+02
751             	3.10486515e+02
752             	3.10486457e+02
753             	3.10486392e+02
754             	3.10486341e+02
755             	3.10486286e+02
756             	3.10486228e+02
757             	3.10486180e+02
758             	3.10486125e+02
759             	3.10486162e+02
760             	3.10486159e+02
761             	3.10486142e+02
762             	3.10486152e+02
763             	3.10486210e+02
764             	3.10486269e+02
765             	3.10486296e+02
766             	3.10486326e+02
767             	3.10486410e+02
768             	3.10486512e+02
769             	3.10486621e+02
770             	3.10486743e+02
771             	3.10486895e+02
772             	3.10487072e+02
773             	3.10487270e+02
774             	3.10487490e+02
775             	3.10487735e+02
776             	3.10488001e+02
777             	3.10488270e+02
778             	3.10488558e+02
779             	3.10488856e+02
780             	3.10489148e+02
781             	3.10489443e+02
782             	3.10489722e+02
783             	3.10489971e+02
784             	3.10490221e+02
785             	3.10490494e+02
786             	3.10490763e+02
787             	3.10490975e+02
788             	3.10491197e+02
789             	3.10491433e+02
790             	3.10491629e+02
791             	3.10491767e+02
792             	3.10491863e+02
793             	3.10491998e+02
794             	3.10492030e+02
795             	3.10491994e+02
796             	3.10491929e+02
797             	3.10491812e+02
798             	3.10491643e+02
799             	3.10491432e+02
800             	3.10491164e+02
801             	3.10490893e+02
802             	3.10490605e+02
803             	3.10490303e+02
804             	3.10490008e+02
805             	3.10489743e+02
806             	3.10489530e+02
807             	3.10489341e+02
808             	3.10489160e+02
809             	3.10489009e+02
810             	3.10488900e+02
811             	3.10488825e+02
812             	3.10488773e+02
813             	3.10488760e+02
814             	3.10488818e+02
815             	3.10488920e+02
816             	3.10489045e+02
817             	3.10489203e+02
818             	3.10489293e+02
819             	3.10489500e+02
820             	3.10489747e+02
821             	3.10489999e+02
822             	3.10490276e+02
823             	3.10490587e+02
824             	3.10490884e+02
825             	3.10491166e+02
826             	3.10491412e+02
827             	3.10491638e+02
828             	3.10491854e+02
829             	3.10492013e+02
830             	3.10492135e+02
831             	3.10492249e+02
832             	3.10492333e+02
833             	3.10492372e+02
834             	3.10492380e+02
835             	3.10492389e+02
836             	3.10492385e+02
837             	3.10492368e+02
838             	3.10492299e+02
839             	3.10492282e+02
840             	3.10492304e+02
841             	3.10492348e+02
842             	3.10492413e+02
843             	3.10492505e+02
844             	3.10492622e+02
845             	3.10492745e+02
846             	3.10492861e+02
847             	3.10492995e+02
848             	3.10493114e+02
849             	3.10493210e+02
850             	3.10493295e+02
851             	3.10493351e+02
852             	3.10493383e+02
853             	3.10493410e+02
854             	3.10493414e+02
855             	3.10493400e+02
856             	3.10493384e+02
857             	3.10493336e+02
858             	3.10493252e+02
859             	3.10493247e+02
860             	3.10493161e+02
861             	3.10493037e+02
862             	3.10492926e+02
863             	3.10492795e+02
864             	3.10492657e+02
865             	3.10492534e+02
866             	3.10492412e+02
867             	3.10492267e+02
868             	3.10492159e+02
869             	3.10492090e+02
870             	3.10491995e+02
871             	3.10491973e+02
872             	3.10492005e+02
873             	3.10492072e+02
874             	3.10492176e+02
875             	3.10492327e+02
876             	3.10492530e+02
877             	3.10492772e+02
878             	3.10493064e+02
879             	3.10493413e+02
880             	3.10493773e+02
881             	3.10494133e+02
882             	3.10494509e+02
883             	3.10494868e+02
884             	3.10495212e+02
885             	3.10495557e+02
886             	3.10495883e+02
887             	3.10496191e+02
888             	3.10496503e+02
889             	3.10496795e+02
890             	3.10497069e+02
891             	3.10497354e+02
892             	3.10497624e+02
893             	3.10497878e+02
894             	3.10498135e+02
895             	3.10498372e+02
896             	3.10498595e+02
897             	3.10498819e+02
898             	3.10499019e+02
899             	3.10499193e+02
900             	3.10499338e+02
901             	3.10499445e+02
902             	3.10499515e+02
903             	3.10499556e+02
904             	3.10499542e+02
905             	3.10499478e+02
906             	3.10499385e+02
907             	3.10499242e+02
908             	3.10499088e+02
909             	3.10498883e+02
910             	3.10498661e+02
911             	3.10498383e+02
912             	3.10498086e+02
913             	3.10497764e+02
914             	3.10497434e+02
915             	3.10497106e+02
916             	3.10496758e+02
917             	3.10496395e+02
918             	3.10496031e+02
919             	3.10495694e+02
920             	3.10495367e+02
921             	3.10495047e+02
922             	3.10494738e+02
923             	3.10494452e+02
924             	3.10494200e+02
925             	3.10493990e+02
926             	3.10493828e+02
927             	3.10493716e+02
928             	3.10493655e+02
929             	3.10493641e+02
930             	3.10493685e+02
931             	3.10493778e+02
932             	3.10493916e+02
933             	3.10494093e+02