# Region        : cellZone pcb
# Cells         : 767
# Volume        : 1.37730774e+00
# Time          	volAverage(T)
1               	3.00002016e+02
2               	3.00005893e+02
3               	3.00011439e+02
4               	3.00018580e+02
5               	3.00026560e+02
6               	3.00035681e+02
7               	3.00045965e+02
8               	3.00057390e+02
9               	3.00070027e+02
10              	3.00083838e+02
11              	3.00098966e+02
12              	3.00115232e+02
13              	3.00132375e+02
14              	3.00151127e+02
15              	3.00171023e+02
16              	3.00191565e+02
17              	3.00212655e+02
18              	3.00233939e+02
19              	3.00255741e+02
20              	3.00278062e+02
21              	3.00300664e+02
22              	3.00324220e+02
23              	3.00348935e+02
24              	3.00374448e+02
25              	3.00400329e+02
26              	3.00426569e+02
27              	3.00452770e+02
28              	3.00480402e+02
29              	3.00508943e+02
30              	3.00538522e+02
31              	3.00568406e+02
32              	3.00599539e+02
33              	3.00630660e+02
34              	3.00661204e+02
35              	3.00690738e+02
36              	3.00720237e+02
37              	3.00749522e+02
38              	3.00778531e+02
39              	3.00807999e+02
40              	3.00837650e+02
41              	3.00867364e+02
42              	3.00899058e+02
43              	3.00931773e+02
44              	3.00965268e+02
45              	3.01000381e+02
46              	3.01033621e+02
47              	3.01065218e+02
48              	3.01098789e+02
49              	3.01131595e+02
50              	3.01163552e+02
51              	3.01194948e+02
52              	3.01227826e+02
53              	3.01261013e+02
54              	3.01293843e+02
55              	3.01325888e+02
56              	3.01356614e+02
57              	3.01386588e+02
58              	3.01417249e+02
59              	3.01449947e+02
60              	3.01484988e+02
61              	3.01522115e+02
62              	3.01559981e+02
63              	3.01599238e+02
64              	3.01636984e+02
65              	3.01672789e+02
66              	3.01709041e+02
67              	3.01742482e+02
68              	3.01775456e+02
69              	3.01808823e+02
70              	3.01842116e+02
71              	3.01876292e+02
72              	3.01910209e+02
73              	3.01943444e+02
74              	3.01975860e+02
75              	3.02007840e+02
76              	3.02039365e+02
77              	3.02070694e+02
78              	3.02102120e+02
79              	3.02132848e+02
80              	3.02163473e+02
81              	3.02194524e+02
82              	3.02226895e+02
83              	3.02259477e+02
84              	3.02292920e+02
85              	3.02326769e+02
86              	3.02361671e+02
87              	3.02396208e+02
88              	3.02429721e+02
89              	3.02462937e+02
90              	3.02496965e+02
91              	3.02530519e+02
92              	3.02563178e+02
93              	3.02596622e+02
94              	3.02629128e+02
95              	3.02661574e+02
96              	3.02695350e+02
97              	3.02728827e+02
98              	3.02761412e+02
99              	3.02793851e+02
100             	3.02825825e+02
101             	3.02858113e+02
102             	3.02890277e+02
103             	3.02921984e+02
104             	3.02953446e+02
105             	3.02985789e+02
106             	3.03018052e+02
107             	3.03052178e+02
108             	3.03085974e+02
109             	3.03120068e+02
110             	3.03153208e+02
111             	3.03185572e+02
112             	3.03216559e+02
113             	3.03247533e+02
114             	3.03278721e+02
115             	3.03309375e+02
116             	3.03339636e+02
117             	3.03370979e+02
118             	3.03402947e+02
119             	3.03434280e+02
120             	3.03464492e+02
121             	3.03495704e+02
122             	3.03526521e+02
123             	3.03556006e+02
124             	3.03584190e+02
125             	3.03612787e+02
126             	3.03641874e+02
127             	3.03671036e+02
128             	3.03700803e+02
129             	3.03730765e+02
130             	3.03760508e+02
131             	3.03789467e+02
132             	3.03817374e+02
133             	3.03845197e+02
134             	3.03873199e+02
135             	3.03901505e+02
136             	3.03929760e+02
137             	3.03957866e+02
138             	3.03985825e+02
139             	3.04013960e+02
140             	3.04042079e+02
141             	3.04069830e+02
142             	3.04096867e+02
143             	3.04123470e+02
144             	3.04149514e+02
145             	3.04175424e+02
146             	3.04201334e+02
147             	3.04227002e+02
148             	3.04252618e+02
149             	3.04277892e+02
150             	3.04302872e+02
151             	3.04327585e+02
152             	3.04352019e+02
153             	3.04376542e+02
154             	3.04400675e+02
155             	3.04424576e+02
156             	3.04448376e+02
157             	3.04472117e+02
158             	3.04495785e+02
159             	3.04519332e+02
160             	3.04543018e+02
161             	3.04566608e+02
162             	3.04590102e+02
163             	3.04613505e+02
164             	3.04636496e+02
165             	3.04659022e+02
166             	3.04681468e+02
167             	3.04703714e+02
168             	3.04725751e+02
169             	3.04747559e+02
170             	3.04769389e+02
171             	3.04790856e+02
172             	3.04812041e+02
173             	3.04833167e+02
174             	3.04854093e+02
175             	3.04874813e+02
176             	3.04895324e+02
177             	3.04915628e+02
178             	3.04935779e+02
179             	3.04955797e+02
180             	3.04975793e+02
181             	3.04995776e+02
182             	3.05015683e+02
183             	3.05035542e+02
184             	3.05055363e+02
185             	3.05075117e+02
186             	3.05094819e+02
187             	3.05114238e+02
188             	3.05133410e+02
189             	3.05152441e+02
190             	3.05171294e+02
191             	3.05189976e+02
192             	3.05208426e+02
193             	3.05226612e+02
194             	3.05244771e+02
195             	3.05262704e+02
196             	3.05280493e+02
197             	3.05298130e+02
198             	3.05315719e+02
199             	3.05333180e+02
200             	3.05350596e+02
201             	3.05367781e+02
202             	3.05385010e+02
203             	3.05402095e+02
204             	3.05419169e+02
205             	3.05436141e+02
206             	3.05453021e+02
207             	3.05469719e+02
208             	3.05486141e+02
209             	3.05502383e+02
210             	3.05518476e+02
211             	3.05534380e+02
212             	3.05550066e+02
213             	3.05565587e+02
214             	3.05580971e+02
215             	3.05596263e+02
216             	3.05611499e+02
217             	3.05626641e+02
218             	3.05641670e+02
219             	3.05656518e+02
220             	3.05671370e+02
221             	3.05686151e+02
222             	3.05700827e+02
223             	3.05715426e+02
224             	3.05730004e+02
225             	3.05744450e+02
226             	3.05758836e+02
227             	3.05773152e+02
228             	3.05787360e+02
229             	3.05801374e+02
230             	3.05815395e+02
231             	3.05829220e+02
232             	3.05842863e+02
233             	3.05856439e+02
234             	3.05869918e+02
235             	3.05883244e+02
236             	3.05896425e+02
237             	3.05909568e+02
238             	3.05922613e+02
239             	3.05935549e+02
240             	3.05948346e+02
241             	3.05961003e+02
242             	3.05973524e+02
243             	3.05985996e+02
244             	3.05998398e+02
245             	3.06010696e+02
246             	3.06022885e+02
247             	3.06034984e+02
248             	3.06047020e+02
249             	3.06059003e+02
250             	3.06070910e+02
251             	3.06082727e+02
252             	3.06094452e+02
253             	3.06106109e+02
254             	3.06117700e+02
255             	3.06129211e+02
256             	3.06140644e+02
257             	3.06151985e+02
258             	3.06163184e+02
259             	3.06174236e+02
260             	3.06185234e+02
261             	3.06196156e+02
262             	3.06206998e+02
263             	3.06217764e+02
264             	3.06228449e+02
265             	3.06239032e+02
266             	3.06249529e+02
267             	3.06259946e+02
268             	3.06270242e+02
269             	3.06280428e+02
270             	3.06290561e+02
271             	3.06300647e+02
272             	3.06310661e+02
273             	3.06320576e+02
274             	3.06330415e+02
275             	3.06340183e+02
276             	3.06349884e+02
277             	3.06359511e+02
278             	3.06369056e+02
279             	3.06378526e+02
280             	3.06387932e+02
281             	3.06397281e+02
282             	3.06406568e+02
283             	3.06415788e+02
284             	3.06424934e+02
285             	3.06434021e+02
286             	3.06443052e+02
287             	3.06452021e+02
288             	3.06460916e+02
289             	3.06469747e+02
290             	3.06478507e+02
291             	3.06487190e+02
292             	3.06495793e+02
293             	3.06504338e+02
294             	3.06512825e+02
295             	3.06521260e+02
296             	3.06529633e+02
297             	3.06537949e+02
298             	3.06546204e+02
299             	3.06554398e+02
300             	3.06562528e+02
301             	3.06570594e+02
302             	3.06578598e+02
303             	3.06586535e+02
304             	3.06594401e+02
305             	3.06602201e+02
306             	3.06609942e+02
307             	3.06617625e+02
308             	3.06625248e+02
309             	3.06632814e+02
310             	3.06640327e+02
311             	3.06647787e+02
312             	3.06655192e+02
313             	3.06662539e+02
314             	3.06669833e+02
315             	3.06677074e+02
316             	3.06684261e+02
317             	3.06691395e+02
318             	3.06698475e+02
319             	3.06705504e+02
320             	3.06712484e+02
321             	3.06719412e+02
322             	3.06726290e+02
323             	3.06733118e+02
324             	3.06739896e+02
325             	3.06746625e+02
326             	3.06753310e+02
327             	3.06759947e+02
328             	3.06766535e+02
329             	3.06773076e+02
330             	3.06779569e+02
331             	3.06786015e+02
332             	3.06792419e+02
333             	3.06798779e+02
334             	3.06805092e+02
335             	3.06811360e+02
336             	3.06817584e+02
337             	3.06823763e+02
338             	3.06829895e+02
339             	3.06835978e+02
340             	3.06842012e+02
341             	3.06847998e+02
342             	3.06853938e+02
343             	3.06859830e+02
344             	3.06865679e+02
345             	3.06871480e+02
346             	3.06877241e+02
347             	3.06882954e+02
348             	3.06888623e+02
349             	3.06894251e+02
350             	3.06899833e+02
351             	3.06905375e+02
352             	3.06910876e+02
353             	3.06916336e+02
354             	3.06921754e+02
355             	3.06927135e+02
356             	3.06932471e+02
357             	3.06937769e+02
358             	3.06943029e+02
359             	3.06948251e+02
360             	3.06953434e+02
361             	3.06958579e+02
362             	3.06963684e+02
363             	3.06968750e+02
364             	3.06973774e+02
365             	3.06978763e+02
366             	3.06983718e+02
367             	3.06988638e+02
368             	3.06993523e+02
369             	3.06998369e+02
370             	3.07003183e+02
371             	3.07007964e+02
372             	3.07012713e+02
373             	3.07017432e+02
374             	3.07022114e+02
375             	3.07026763e+02
376             	3.07031377e+02
377             	3.07035958e+02
378             	3.07040507e+02
379             	3.07045024e+02
380             	3.07049510e+02
381             	3.07053968e+02
382             	3.07058393e+02
383             	3.07062786e+02
384             	3.07067147e+02
385             	3.07071477e+02
386             	3.07075774e+02
387             	3.07080037e+02
388             	3.07084273e+02
389             	3.07088476e+02
390             	3.07092647e+02
391             	3.07096785e+02
392             	3.07100889e+02
393             	3.07104965e+02
394             	3.07109007e+02
395             	3.07113021e+02
396             	3.07117007e+02
397             	3.07120963e+02
398             	3.07124888e+02
399             	3.07128783e+02
400             	3.07132650e+02
401             	3.07136489e+02
402             	3.07140298e+02
403             	3.07144074e+02
404             	3.07147823e+02
405             	3.07151545e+02
406             	3.07155240e+02
407             	3.07158906e+02
408             	3.07162544e+02
409             	3.07166156e+02
410             	3.07169740e+02
411             	3.07173301e+02
412             	3.07176837e+02
413             	3.07180345e+02
414             	3.07183828e+02
415             	3.07187286e+02
416             	3.07190715e+02
417             	3.07194119e+02
418             	3.07197499e+02
419             	3.07200857e+02
420             	3.07204194e+02
421             	3.07207507e+02
422             	3.07210799e+02
423             	3.07214076e+02
424             	3.07217330e+02
425             	3.07220557e+02
426             	3.07223759e+02
427             	3.07226936e+02
428             	3.07230084e+02
429             	3.07233214e+02
430             	3.07236323e+02
431             	3.07239410e+02
432             	3.07242475e+02
433             	3.07245518e+02
434             	3.07248538e+02
435             	3.07251535e+02
436             	3.07254512e+02
437             	3.07257479e+02
438             	3.07260419e+02
439             	3.07263334e+02
440             	3.07266225e+02
441             	3.07269088e+02
442             	3.07271929e+02
443             	3.07274749e+02
444             	3.07277553e+02
445             	3.07280338e+02
446             	3.07283104e+02
447             	3.07285850e+02
448             	3.07288574e+02
449             	3.07291278e+02
450             	3.07293964e+02
451             	3.07296629e+02
452             	3.07299273e+02
453             	3.07301894e+02
454             	3.07304498e+02
455             	3.07307079e+02
456             	3.07309639e+02
457             	3.07312182e+02
458             	3.07314708e+02
459             	3.07317215e+02
460             	3.07319705e+02
461             	3.07322175e+02
462             	3.07324628e+02
463             	3.07327064e+02
464             	3.07329477e+02
465             	3.07331874e+02
466             	3.07334257e+02
467             	3.07336626e+02
468             	3.07338981e+02
469             	3.07341321e+02
470             	3.07343645e+02
471             	3.07345953e+02
472             	3.07348244e+02
473             	3.07350520e+02
474             	3.07352783e+02
475             	3.07355030e+02
476             	3.07357260e+02
477             	3.07359473e+02
478             	3.07361671e+02
479             	3.07363855e+02
480             	3.07366025e+02
481             	3.07368179e+02
482             	3.07370318e+02
483             	3.07372441e+02
484             	3.07374548e+02
485             	3.07376639e+02
486             	3.07378715e+02
487             	3.07380775e+02
488             	3.07382823e+02
489             	3.07384855e+02
490             	3.07386873e+02
491             	3.07388873e+02
492             	3.07390858e+02
493             	3.07392829e+02
494             	3.07394785e+02
495             	3.07396728e+02
496             	3.07398657e+02
497             	3.07400570e+02
498             	3.07402469e+02
499             	3.07404354e+02
500             	3.07406223e+02
501             	3.07408077e+02
502             	3.07409918e+02
503             	3.07411745e+02
504             	3.07413559e+02
505             	3.07415360e+02
506             	3.07417147e+02
507             	3.07418919e+02
508             	3.07420676e+02
509             	3.07422424e+02
510             	3.07424162e+02
511             	3.07425888e+02
512             	3.07427604e+02
513             	3.07429306e+02
514             	3.07430998e+02
515             	3.07432679e+02
516             	3.07434346e+02
517             	3.07436002e+02
518             	3.07437645e+02
519             	3.07439279e+02
520             	3.07440906e+02
521             	3.07442519e+02
522             	3.07444118e+02
523             	3.07445703e+02
524             	3.07447278e+02
525             	3.07448850e+02
526             	3.07450411e+02
527             	3.07451964e+02
528             	3.07453507e+02
529             	3.07455038e+02
530             	3.07456553e+02
531             	3.07458054e+02
532             	3.07459548e+02
533             	3.07461033e+02
534             	3.07462509e+02
535             	3.07463976e+02
536             	3.07465434e+02
537             	3.07466879e+02
538             	3.07468313e+02
539             	3.07469733e+02
540             	3.07471142e+02
541             	3.07472539e+02
542             	3.07473925e+02
543             	3.07475303e+02
544             	3.07476675e+02
545             	3.07478036e+02
546             	3.07479388e+02
547             	3.07480732e+02
548             	3.07482067e+02
549             	3.07483391e+02
550             	3.07484703e+02
551             	3.07486005e+02
552             	3.07487297e+02
553             	3.07488581e+02
554             	3.07489858e+02
555             	3.07491128e+02
556             	3.07492390e+02
557             	3.07493642e+02
558             	3.07494879e+02
559             	3.07496108e+02
560             	3.07497330e+02
561             	3.07498545e+02
562             	3.07499753e+02
563             	3.07500951e+02
564             	3.07502140e+02
565             	3.07503321e+02
566             	3.07504496e+02
567             	3.07505664e+02
568             	3.07506824e+02
569             	3.07507976e+02
570             	3.07509120e+02
571             	3.07510255e+02
572             	3.07511378e+02
573             	3.07512494e+02
574             	3.07513603e+02
575             	3.07514703e+02
576             	3.07515800e+02
577             	3.07516894e+02
578             	3.07517985e+02
579             	3.07519067e+02
580             	3.07520140e+02
581             	3.07521208e+02
582             	3.07522267e+02
583             	3.07523319e+02
584             	3.07524361e+02
585             	3.07525394e+02
586             	3.07526418e+02
587             	3.07527433e+02
588             	3.07528442e+02
589             	3.07529443e+02
590             	3.07530440e+02
591             	3.07531429e+02
592             	3.07532410e+02
593             	3.07533382e+02
594             	3.07534344e+02
595             	3.07535299e+02
596             	3.07536249e+02
597             	3.07537192e+02
598             	3.07538129e+02
599             	3.07539061e+02
600             	3.07539987e+02
601             	3.07540907e+02
602             	3.07541821e+02
603             	3.07542729e+02
604             	3.07543631e+02
605             	3.07544524e+02
606             	3.07545411e+02
607             	3.07546290e+02
608             	3.07547163e+02
609             	3.07548030e+02
610             	3.07548889e+02
611             	3.07549746e+02
612             	3.07550601e+02
613             	3.07551450e+02
614             	3.07552297e+02
615             	3.07553140e+02
616             	3.07553974e+02
617             	3.07554803e+02
618             	3.07555624e+02
619             	3.07556439e+02
620             	3.07557248e+02
621             	3.07558054e+02
622             	3.07558857e+02
623             	3.07559651e+02
624             	3.07560440e+02
625             	3.07561223e+02
626             	3.07562001e+02
627             	3.07562774e+02
628             	3.07563541e+02
629             	3.07564302e+02
630             	3.07565059e+02
631             	3.07565814e+02
632             	3.07566562e+02
633             	3.07567303e+02
634             	3.07568038e+02
635             	3.07568770e+02
636             	3.07569496e+02
637             	3.07570214e+02
638             	3.07570924e+02
639             	3.07571629e+02
640             	3.07572331e+02
641             	3.07573033e+02
642             	3.07573731e+02
643             	3.07574426e+02
644             	3.07575115e+02
645             	3.07575800e+02
646             	3.07576482e+02
647             	3.07577161e+02
648             	3.07577834e+02
649             	3.07578499e+02
650             	3.07579156e+02
651             	3.07579809e+02
652             	3.07580457e+02
653             	3.07581102e+02
654             	3.07581742e+02
655             	3.07582381e+02
656             	3.07583016e+02
657             	3.07583645e+02
658             	3.07584269e+02
659             	3.07584888e+02
660             	3.07585500e+02
661             	3.07586113e+02
662             	3.07586727e+02
663             	3.07587338e+02
664             	3.07587945e+02
665             	3.07588548e+02
666             	3.07589143e+02
667             	3.07589734e+02
668             	3.07590321e+02
669             	3.07590900e+02
670             	3.07591473e+02
671             	3.07592040e+02
672             	3.07592606e+02
673             	3.07593173e+02
674             	3.07593735e+02
675             	3.07594291e+02
676             	3.07594844e+02
677             	3.07595394e+02
678             	3.07595941e+02
679             	3.07596485e+02
680             	3.07597025e+02
681             	3.07597564e+02
682             	3.07598099e+02
683             	3.07598629e+02
684             	3.07599155e+02
685             	3.07599677e+02
686             	3.07600196e+02
687             	3.07600711e+02
688             	3.07601222e+02
689             	3.07601729e+02
690             	3.07602234e+02
691             	3.07602732e+02
692             	3.07603227e+02
693             	3.07603715e+02
694             	3.07604198e+02
695             	3.07604680e+02
696             	3.07605160e+02
697             	3.07605638e+02
698             	3.07606115e+02
699             	3.07606589e+02
700             	3.07607061e+02
701             	3.07607529e+02
702             	3.07607995e+02
703             	3.07608457e+02
704             	3.07608917e+02
705             	3.07609374e+02
706             	3.07609829e+02
707             	3.07610281e+02
708             	3.07610730e+02
709             	3.07611177e+02
710             	3.07611620e+02
711             	3.07612061e+02
712             	3.07612499e+02
713             	3.07612933e+02
714             	3.07613364e+02
715             	3.07613792e+02
716             	3.07614218e+02
717             	3.07614647e+02
718             	3.07615072e+02
719             	3.07615493e+02
720             	3.07615911e+02
721             	3.07616326e+02
722             	3.07616739e+02
723             	3.07617149e+02
724             	3.07617554e+02
725             	3.07617956e+02
726             	3.07618356e+02
727             	3.07618755e+02
728             	3.07619151e+02
729             	3.07619543e+02
730             	3.07619931e+02
731             	3.07620315e+02
732             	3.07620697e+02
733             	3.07621079e+02
734             	3.07621464e+02
735             	3.07621847e+02
736             	3.07622223e+02
737             	3.07622601e+02
738             	3.07622975e+02
739             	3.07623341e+02
740             	3.07623699e+02
741             	3.07624058e+02
742             	3.07624416e+02
743             	3.07624772e+02
744             	3.07625125e+02
745             	3.07625473e+02
746             	3.07625818e+02
747             	3.07626162e+02
748             	3.07626507e+02
749             	3.07626852e+02
750             	3.07627194e+02
751             	3.07627531e+02
752             	3.07627864e+02
753             	3.07628188e+02
754             	3.07628513e+02
755             	3.07628833e+02
756             	3.07629149e+02
757             	3.07629464e+02
758             	3.07629779e+02
759             	3.07630096e+02
760             	3.07630415e+02
761             	3.07630733e+02
762             	3.07631050e+02
763             	3.07631366e+02
764             	3.07631679e+02
765             	3.07631989e+02
766             	3.07632297e+02
767             	3.07632604e+02
768             	3.07632908e+02
769             	3.07633211e+02
770             	3.07633511e+02
771             	3.07633809e+02
772             	3.07634103e+02
773             	3.07634398e+02
774             	3.07634692e+02
775             	3.07634985e+02
776             	3.07635277e+02
777             	3.07635570e+02
778             	3.07635857e+02
779             	3.07636144e+02
780             	3.07636429e+02
781             	3.07636710e+02
782             	3.07636989e+02
783             	3.07637271e+02
784             	3.07637550e+02
785             	3.07637827e+02
786             	3.07638100e+02
787             	3.07638370e+02
788             	3.07638640e+02
789             	3.07638907e+02
790             	3.07639170e+02
791             	3.07639432e+02
792             	3.07639691e+02
793             	3.07639948e+02
794             	3.07640207e+02
795             	3.07640461e+02
796             	3.07640712e+02
797             	3.07640962e+02
798             	3.07641209e+02
799             	3.07641454e+02
800             	3.07641697e+02
801             	3.07641938e+02
802             	3.07642180e+02
803             	3.07642420e+02
804             	3.07642658e+02
805             	3.07642894e+02
806             	3.07643127e+02
807             	3.07643359e+02
808             	3.07643588e+02
809             	3.07643815e+02
810             	3.07644043e+02
811             	3.07644269e+02
812             	3.07644493e+02
813             	3.07644715e+02
814             	3.07644936e+02
815             	3.07645155e+02
816             	3.07645374e+02
817             	3.07645592e+02
818             	3.07645807e+02
819             	3.07646020e+02
820             	3.07646235e+02
821             	3.07646449e+02
822             	3.07646664e+02
823             	3.07646878e+02
824             	3.07647089e+02
825             	3.07647299e+02
826             	3.07647508e+02
827             	3.07647714e+02
828             	3.07647919e+02
829             	3.07648123e+02
830             	3.07648327e+02
831             	3.07648530e+02
832             	3.07648732e+02
833             	3.07648933e+02
834             	3.07649133e+02
835             	3.07649333e+02
836             	3.07649532e+02
837             	3.07649730e+02
838             	3.07649926e+02
839             	3.07650121e+02
840             	3.07650314e+02
841             	3.07650507e+02
842             	3.07650700e+02
843             	3.07650893e+02
844             	3.07651085e+02
845             	3.07651275e+02
846             	3.07651464e+02
847             	3.07651651e+02
848             	3.07651836e+02
849             	3.07652020e+02
850             	3.07652203e+02
851             	3.07652384e+02
852             	3.07652565e+02
853             	3.07652743e+02
854             	3.07652920e+02
855             	3.07653095e+02
856             	3.07653270e+02
857             	3.07653443e+02
858             	3.07653613e+02
859             	3.07653780e+02
860             	3.07653946e+02
861             	3.07654113e+02
862             	3.07654281e+02
863             	3.07654447e+02
864             	3.07654613e+02
865             	3.07654778e+02
866             	3.07654942e+02
867             	3.07655105e+02
868             	3.07655265e+02
869             	3.07655422e+02
870             	3.07655578e+02
871             	3.07655732e+02
872             	3.07655884e+02
873             	3.07656036e+02
874             	3.07656186e+02
875             	3.07656340e+02
876             	3.07656493e+02
877             	3.07656641e+02
878             	3.07656788e+02
879             	3.07656936e+02
880             	3.07657085e+02
881             	3.07657234e+02
882             	3.07657384e+02
883             	3.07657533e+02
884             	3.07657683e+02
885             	3.07657832e+02
886             	3.07657980e+02
887             	3.07658127e+02
888             	3.07658272e+02
889             	3.07658413e+02
890             	3.07658553e+02
891             	3.07658689e+02
892             	3.07658821e+02
893             	3.07658952e+02
894             	3.07659085e+02
895             	3.07659217e+02
896             	3.07659348e+02
897             	3.07659479e+02
898             	3.07659612e+02
899             	3.07659746e+02
900             	3.07659878e+02
901             	3.07660008e+02
902             	3.07660137e+02
903             	3.07660265e+02
904             	3.07660392e+02
905             	3.07660518e+02
906             	3.07660644e+02
907             	3.07660769e+02
908             	3.07660892e+02
909             	3.07661014e+02
910             	3.07661137e+02
911             	3.07661258e+02
912             	3.07661378e+02
913             	3.07661496e+02
914             	3.07661614e+02
915             	3.07661731e+02
916             	3.07661848e+02
917             	3.07661965e+02
918             	3.07662083e+02
919             	3.07662200e+02
920             	3.07662316e+02
921             	3.07662432e+02
922             	3.07662547e+02
923             	3.07662661e+02
924             	3.07662770e+02
925             	3.07662879e+02
926             	3.07662989e+02
927             	3.07663099e+02
928             	3.07663208e+02
929             	3.07663316e+02
930             	3.07663423e+02
931             	3.07663529e+02
932             	3.07663635e+02
933             	3.07663742e+02