# Region        : cellZone component_0
# Cells         : 420
# Volume        : 8.60302706e-01
# Time          	volAverage(T)
1               	3.00229757e+02
2               	3.00455347e+02
3               	3.00643226e+02
4               	3.00804107e+02
5               	3.00952949e+02
6               	3.01095369e+02
7               	3.01231966e+02
8               	3.01362845e+02
9               	3.01488169e+02
10              	3.01608771e+02
11              	3.01725525e+02
12              	3.01839802e+02
13              	3.01951484e+02
14              	3.02062093e+02
15              	3.02170854e+02
16              	3.02277252e+02
17              	3.02382652e+02
18              	3.02486294e+02
19              	3.02587226e+02
20              	3.02685209e+02
21              	3.02779793e+02
22              	3.02869715e+02
23              	3.02955142e+02
24              	3.03035771e+02
25              	3.03111557e+02
26              	3.03182879e+02
27              	3.03251279e+02
28              	3.03317657e+02
29              	3.03382920e+02
30              	3.03448232e+02
31              	3.03514753e+02
32              	3.03581745e+02
33              	3.03646258e+02
34              	3.03710238e+02
35              	3.03770411e+02
36              	3.03826500e+02
37              	3.03877651e+02
38              	3.03923716e+02
39              	3.03964578e+02
40              	3.04003181e+02
41              	3.04040254e+02
42              	3.04076713e+02
43              	3.04114228e+02
44              	3.04153766e+02
45              	3.04195982e+02
46              	3.04238536e+02
47              	3.04279635e+02
48              	3.04317829e+02
49              	3.04351196e+02
50              	3.04379684e+02
51              	3.04403528e+02
52              	3.04422492e+02
53              	3.04438153e+02
54              	3.04452936e+02
55              	3.04467868e+02
56              	3.04484006e+02
57              	3.04502947e+02
58              	3.04524909e+02
59              	3.04549405e+02
60              	3.04572145e+02
61              	3.04592456e+02
62              	3.04609169e+02
63              	3.04621546e+02
64              	3.04629680e+02
65              	3.04633256e+02
66              	3.04634701e+02
67              	3.04635642e+02
68              	3.04637262e+02
69              	3.04640161e+02
70              	3.04645230e+02
71              	3.04653279e+02
72              	3.04664075e+02
73              	3.04676121e+02
74              	3.04687563e+02
75              	3.04696469e+02
76              	3.04702364e+02
77              	3.04704817e+02
78              	3.04704052e+02
79              	3.04700247e+02
80              	3.04694242e+02
81              	3.04688252e+02
82              	3.04683322e+02
83              	3.04680624e+02
84              	3.04680662e+02
85              	3.04683347e+02
86              	3.04687762e+02
87              	3.04692142e+02
88              	3.04694867e+02
89              	3.04695127e+02
90              	3.04692366e+02
91              	3.04686819e+02
92              	3.04679752e+02
93              	3.04672425e+02
94              	3.04666436e+02
95              	3.04662456e+02
96              	3.04661301e+02
97              	3.04662778e+02
98              	3.04666133e+02
99              	3.04669227e+02
100             	3.04671144e+02
101             	3.04670776e+02
102             	3.04667561e+02
103             	3.04661379e+02
104             	3.04651979e+02
105             	3.04641371e+02
106             	3.04629508e+02
107             	3.04618434e+02
108             	3.04608688e+02
109             	3.04600935e+02
110             	3.04595995e+02
111             	3.04593986e+02
112             	3.04593423e+02
113             	3.04593399e+02
114             	3.04592702e+02
115             	3.04589946e+02
116             	3.04584034e+02
117             	3.04575911e+02
118             	3.04565312e+02
119             	3.04554557e+02
120             	3.04544897e+02
121             	3.04537918e+02
122             	3.04533694e+02
123             	3.04531898e+02
124             	3.04532182e+02
125             	3.04533443e+02
126             	3.04534748e+02
127             	3.04534377e+02
128             	3.04531725e+02
129             	3.04526728e+02
130             	3.04519406e+02
131             	3.04510408e+02
132             	3.04500319e+02
133             	3.04491287e+02
134             	3.04483458e+02
135             	3.04476902e+02
136             	3.04472597e+02
137             	3.04470707e+02
138             	3.04470513e+02
139             	3.04471145e+02
140             	3.04471807e+02
141             	3.04471321e+02
142             	3.04469181e+02
143             	3.04465733e+02
144             	3.04460873e+02
145             	3.04454875e+02
146             	3.04448697e+02
147             	3.04442591e+02
148             	3.04436861e+02
149             	3.04431685e+02
150             	3.04427336e+02
151             	3.04424069e+02
152             	3.04422144e+02
153             	3.04421693e+02
154             	3.04422950e+02
155             	3.04425210e+02
156             	3.04428270e+02
157             	3.04431137e+02
158             	3.04433274e+02
159             	3.04434433e+02
160             	3.04434372e+02
161             	3.04433073e+02
162             	3.04430561e+02
163             	3.04427094e+02
164             	3.04423010e+02
165             	3.04418348e+02
166             	3.04413417e+02
167             	3.04408317e+02
168             	3.04403592e+02
169             	3.04399027e+02
170             	3.04394685e+02
171             	3.04390751e+02
172             	3.04387133e+02
173             	3.04383728e+02
174             	3.04380740e+02
175             	3.04378234e+02
176             	3.04376359e+02
177             	3.04375353e+02
178             	3.04375337e+02
179             	3.04376467e+02
180             	3.04378478e+02
181             	3.04380928e+02
182             	3.04383385e+02
183             	3.04385458e+02
184             	3.04386907e+02
185             	3.04387265e+02
186             	3.04386549e+02
187             	3.04384685e+02
188             	3.04382051e+02
189             	3.04378766e+02
190             	3.04375026e+02
191             	3.04370924e+02
192             	3.04367248e+02
193             	3.04364150e+02
194             	3.04361714e+02
195             	3.04359961e+02
196             	3.04358862e+02
197             	3.04358185e+02
198             	3.04357534e+02
199             	3.04356623e+02
200             	3.04355337e+02
201             	3.04353861e+02
202             	3.04352330e+02
203             	3.04350964e+02
204             	3.04350199e+02
205             	3.04350345e+02
206             	3.04351518e+02
207             	3.04353501e+02
208             	3.04356061e+02
209             	3.04358913e+02
210             	3.04361656e+02
211             	3.04363841e+02
212             	3.04364914e+02
213             	3.04364805e+02
214             	3.04363731e+02
215             	3.04361737e+02
216             	3.04359167e+02
217             	3.04356421e+02
218             	3.04354105e+02
219             	3.04352436e+02
220             	3.04351472e+02
221             	3.04351115e+02
222             	3.04351237e+02
223             	3.04351493e+02
224             	3.04351510e+02
225             	3.04351030e+02
226             	3.04350105e+02
227             	3.04348765e+02
228             	3.04347045e+02
229             	3.04345407e+02
230             	3.04344053e+02
231             	3.04343456e+02
232             	3.04343806e+02
233             	3.04344852e+02
234             	3.04346261e+02
235             	3.04347693e+02
236             	3.04348767e+02
237             	3.04349366e+02
238             	3.04349510e+02
239             	3.04349321e+02
240             	3.04348967e+02
241             	3.04348676e+02
242             	3.04348555e+02
243             	3.04348640e+02
244             	3.04348957e+02
245             	3.04349475e+02
246             	3.04350034e+02
247             	3.04350478e+02
248             	3.04350633e+02
249             	3.04350402e+02
250             	3.04349857e+02
251             	3.04349160e+02
252             	3.04348411e+02
253             	3.04347790e+02
254             	3.04347409e+02
255             	3.04347281e+02
256             	3.04347369e+02
257             	3.04347558e+02
258             	3.04347799e+02
259             	3.04348008e+02
260             	3.04348160e+02
261             	3.04348170e+02
262             	3.04348073e+02
263             	3.04348005e+02
264             	3.04348112e+02
265             	3.04348481e+02
266             	3.04349116e+02
267             	3.04350001e+02
268             	3.04351016e+02
269             	3.04351951e+02
270             	3.04352624e+02
271             	3.04352987e+02
272             	3.04353029e+02
273             	3.04352747e+02
274             	3.04352230e+02
275             	3.04351668e+02
276             	3.04351238e+02
277             	3.04351001e+02
278             	3.04350956e+02
279             	3.04351109e+02
280             	3.04351388e+02
281             	3.04351687e+02
282             	3.04351915e+02
283             	3.04352073e+02
284             	3.04352217e+02
285             	3.04352372e+02
286             	3.04352586e+02
287             	3.04352873e+02
288             	3.04353235e+02
289             	3.04353661e+02
290             	3.04354124e+02
291             	3.04354599e+02
292             	3.04355092e+02
293             	3.04355574e+02
294             	3.04356026e+02
295             	3.04356430e+02
296             	3.04356764e+02
297             	3.04357014e+02
298             	3.04357164e+02
299             	3.04357215e+02
300             	3.04357168e+02
301             	3.04357019e+02
302             	3.04356793e+02
303             	3.04356518e+02
304             	3.04356233e+02
305             	3.04355984e+02
306             	3.04355786e+02
307             	3.04355680e+02
308             	3.04355666e+02
309             	3.04355730e+02
310             	3.04355865e+02
311             	3.04356035e+02
312             	3.04356220e+02
313             	3.04356423e+02
314             	3.04356628e+02
315             	3.04356829e+02
316             	3.04357028e+02
317             	3.04357224e+02
318             	3.04357422e+02
319             	3.04357620e+02
320             	3.04357806e+02
321             	3.04357973e+02
322             	3.04358117e+02
323             	3.04358225e+02
324             	3.04358289e+02
325             	3.04358308e+02
326             	3.04358288e+02
327             	3.04358249e+02
328             	3.04358213e+02
329             	3.04358198e+02
330             	3.04358222e+02
331             	3.04358283e+02
332             	3.04358387e+02
333             	3.04358516e+02
334             	3.04358654e+02
335             	3.04358797e+02
336             	3.04358927e+02
337             	3.04359045e+02
338             	3.04359154e+02
339             	3.04359261e+02
340             	3.04359372e+02
341             	3.04359487e+02
342             	3.04359601e+02
343             	3.04359706e+02
344             	3.04359796e+02
345             	3.04359867e+02
346             	3.04359910e+02
347             	3.04359927e+02
348             	3.04359927e+02
349             	3.04359925e+02
350             	3.04359936e+02
351             	3.04359971e+02
352             	3.04360038e+02
353             	3.04360133e+02
354             	3.04360252e+02
355             	3.04360384e+02
356             	3.04360514e+02
357             	3.04360626e+02
358             	3.04360717e+02
359             	3.04360785e+02
360             	3.04360835e+02
361             	3.04360871e+02
362             	3.04360900e+02
363             	3.04360933e+02
364             	3.04360975e+02
365             	3.04361027e+02
366             	3.04361089e+02
367             	3.04361162e+02
368             	3.04361251e+02
369             	3.04361356e+02
370             	3.04361477e+02
371             	3.04361609e+02
372             	3.04361744e+02
373             	3.04361879e+02
374             	3.04362009e+02
375             	3.04362127e+02
376             	3.04362233e+02
377             	3.04362326e+02
378             	3.04362408e+02
379             	3.04362479e+02
380             	3.04362543e+02
381             	3.04362601e+02
382             	3.04362662e+02
383             	3.04362727e+02
384             	3.04362797e+02
385             	3.04362874e+02
386             	3.04362958e+02
387             	3.04363049e+02
388             	3.04363146e+02
389             	3.04363250e+02
390             	3.04363356e+02
391             	3.04363463e+02
392             	3.04363569e+02
393             	3.04363673e+02
394             	3.04363772e+02
395             	3.04363865e+02
396             	3.04363951e+02
397             	3.04364031e+02
398             	3.04364106e+02
399             	3.04364176e+02
400             	3.04364243e+02
401             	3.04364311e+02
402             	3.04364381e+02
403             	3.04364455e+02
404             	3.04364532e+02
405             	3.04364612e+02
406             	3.04364696e+02
407             	3.04364782e+02
408             	3.04364872e+02
409             	3.04364964e+02
410             	3.04365058e+02
411             	3.04365154e+02
412             	3.04365251e+02
413             	3.04365349e+02
414             	3.04365445e+02
415             	3.04365538e+02
416             	3.04365626e+02
417             	3.04365709e+02
418             	3.04365786e+02
419             	3.04365858e+02
420             	3.04365927e+02
421             	3.04365995e+02
422             	3.04366063e+02
423             	3.04366133e+02
424             	3.04366206e+02
425             	3.04366281e+02
426             	3.04366356e+02
427             	3.04366432e+02
428             	3.04366509e+02
429             	3.04366586e+02
430             	3.04366665e+02
431             	3.04366745e+02
432             	3.04366826e+02
433             	3.04366908e+02
434             	3.04366990e+02
435             	3.04367070e+02
436             	3.04367149e+02
437             	3.04367225e+02
438             	3.04367298e+02
439             	3.04367368e+02
440             	3.04367435e+02
441             	3.04367499e+02
442             	3.04367560e+02
443             	3.04367618e+02
444             	3.04367674e+02
445             	3.04367729e+02
446             	3.04367784e+02
447             	3.04367841e+02
448             	3.04367899e+02
449             	3.04367958e+02
450             	3.04368020e+02
451             	3.04368082e+02
452             	3.04368145e+02
453             	3.04368207e+02
454             	3.04368268e+02
455             	3.04368329e+02
456             	3.04368389e+02
457             	3.04368447e+02
458             	3.04368506e+02
459             	3.04368563e+02
460             	3.04368619e+02
461             	3.04368674e+02
462             	3.04368726e+02
463             	3.04368776e+02
464             	3.04368823e+02
465             	3.04368868e+02
466             	3.04368910e+02
467             	3.04368950e+02
468             	3.04368989e+02
469             	3.04369027e+02
470             	3.04369064e+02
471             	3.04369101e+02
472             	3.04369136e+02
473             	3.04369172e+02
474             	3.04369207e+02
475             	3.04369243e+02
476             	3.04369279e+02
477             	3.04369314e+02
478             	3.04369350e+02
479             	3.04369387e+02
480             	3.04369424e+02
481             	3.04369462e+02
482             	3.04369500e+02
483             	3.04369538e+02
484             	3.04369576e+02
485             	3.04369613e+02
486             	3.04369647e+02
487             	3.04369680e+02
488             	3.04369711e+02
489             	3.04369739e+02
490             	3.04369765e+02
491             	3.04369790e+02
492             	3.04369813e+02
493             	3.04369836e+02
494             	3.04369859e+02
495             	3.04369881e+02
496             	3.04369904e+02
497             	3.04369927e+02
498             	3.04369950e+02
499             	3.04369973e+02
500             	3.04369996e+02
501             	3.04370019e+02
502             	3.04370041e+02
503             	3.04370064e+02
504             	3.04370087e+02
505             	3.04370109e+02
506             	3.04370132e+02
507             	3.04370155e+02
508             	3.04370177e+02
509             	3.04370198e+02
510             	3.04370219e+02
511             	3.04370240e+02
512             	3.04370259e+02
513             	3.04370278e+02
514             	3.04370296e+02
515             	3.04370313e+02
516             	3.04370330e+02
517             	3.04370346e+02
518             	3.04370361e+02
519             	3.04370375e+02
520             	3.04370388e+02
521             	3.04370400e+02
522             	3.04370412e+02
523             	3.04370423e+02
524             	3.04370433e+02
525             	3.04370444e+02
526             	3.04370456e+02
527             	3.04370467e+02
528             	3.04370480e+02
529             	3.04370493e+02
530             	3.04370506e+02
531             	3.04370519e+02
532             	3.04370533e+02
533             	3.04370546e+02
534             	3.04370560e+02
535             	3.04370573e+02
536             	3.04370587e+02
537             	3.04370600e+02
538             	3.04370613e+02
539             	3.04370626e+02
540             	3.04370638e+02
541             	3.04370650e+02
542             	3.04370661e+02
543             	3.04370671e+02
544             	3.04370681e+02
545             	3.04370690e+02
546             	3.04370699e+02
547             	3.04370707e+02
548             	3.04370715e+02
549             	3.04370722e+02
550             	3.04370729e+02
551             	3.04370736e+02
552             	3.04370743e+02
553             	3.04370750e+02
554             	3.04370757e+02
555             	3.04370765e+02
556             	3.04370773e+02
557             	3.04370781e+02
558             	3.04370790e+02
559             	3.04370799e+02
560             	3.04370807e+02
561             	3.04370816e+02
562             	3.04370824e+02
563             	3.04370832e+02
564             	3.04370841e+02
565             	3.04370848e+02
566             	3.04370856e+02
567             	3.04370862e+02
568             	3.04370868e+02
569             	3.04370874e+02
570             	3.04370878e+02
571             	3.04370882e+02
572             	3.04370886e+02
573             	3.04370889e+02
574             	3.04370892e+02
575             	3.04370895e+02
576             	3.04370899e+02
577             	3.04370903e+02
578             	3.04370908e+02
579             	3.04370913e+02
580             	3.04370919e+02
581             	3.04370926e+02
582             	3.04370934e+02
583             	3.04370941e+02
584             	3.04370947e+02
585             	3.04370953e+02
586             	3.04370959e+02
587             	3.04370963e+02
588             	3.04370967e+02
589             	3.04370969e+02
590             	3.04370971e+02
591             	3.04370973e+02
592             	3.04370974e+02
593             	3.04370976e+02
594             	3.04370978e+02
595             	3.04370981e+02
596             	3.04370984e+02
597             	3.04370987e+02
598             	3.04370991e+02
599             	3.04370996e+02
600             	3.04371000e+02
601             	3.04371005e+02
602             	3.04371010e+02
603             	3.04371015e+02
604             	3.04371020e+02
605             	3.04371025e+02
606             	3.04371029e+02
607             	3.04371033e+02
608             	3.04371037e+02
609             	3.04371039e+02
610             	3.04371041e+02
611             	3.04371042e+02
612             	3.04371042e+02
613             	3.04371043e+02
614             	3.04371043e+02
615             	3.04371043e+02
616             	3.04371044e+02
617             	3.04371045e+02
618             	3.04371047e+02
619             	3.04371050e+02
620             	3.04371054e+02
621             	3.04371058e+02
622             	3.04371062e+02
623             	3.04371067e+02
624             	3.04371072e+02
625             	3.04371077e+02
626             	3.04371081e+02
627             	3.04371085e+02
628             	3.04371088e+02
629             	3.04371090e+02
630             	3.04371092e+02
631             	3.04371094e+02
632             	3.04371095e+02
633             	3.04371096e+02
634             	3.04371097e+02
635             	3.04371098e+02
636             	3.04371098e+02
637             	3.04371099e+02
638             	3.04371100e+02
639             	3.04371101e+02
640             	3.04371102e+02
641             	3.04371103e+02
642             	3.04371104e+02
643             	3.04371105e+02
644             	3.04371106e+02
645             	3.04371108e+02
646             	3.04371110e+02
647             	3.04371111e+02
648             	3.04371113e+02
649             	3.04371116e+02
650             	3.04371118e+02
651             	3.04371122e+02
652             	3.04371125e+02
653             	3.04371128e+02
654             	3.04371132e+02
655             	3.04371136e+02
656             	3.04371139e+02
657             	3.04371142e+02
658             	3.04371144e+02
659             	3.04371146e+02
660             	3.04371146e+02
661             	3.04371147e+02
662             	3.04371147e+02
663             	3.04371147e+02
664             	3.04371147e+02
665             	3.04371147e+02
666             	3.04371147e+02
667             	3.04371148e+02
668             	3.04371149e+02
669             	3.04371149e+02
670             	3.04371150e+02
671             	3.04371150e+02
672             	3.04371150e+02
673             	3.04371150e+02
674             	3.04371150e+02
675             	3.04371150e+02
676             	3.04371150e+02
677             	3.04371151e+02
678             	3.04371151e+02
679             	3.04371151e+02
680             	3.04371152e+02
681             	3.04371153e+02
682             	3.04371154e+02
683             	3.04371156e+02
684             	3.04371157e+02
685             	3.04371159e+02
686             	3.04371161e+02
687             	3.04371163e+02
688             	3.04371165e+02
689             	3.04371166e+02
690             	3.04371168e+02
691             	3.04371170e+02
692             	3.04371172e+02
693             	3.04371173e+02
694             	3.04371175e+02
695             	3.04371176e+02
696             	3.04371178e+02
697             	3.04371179e+02
698             	3.04371181e+02
699             	3.04371182e+02
700             	3.04371184e+02
701             	3.04371185e+02
702             	3.04371187e+02
703             	3.04371188e+02
704             	3.04371189e+02
705             	3.04371190e+02
706             	3.04371191e+02
707             	3.04371191e+02
708             	3.04371192e+02
709             	3.04371191e+02
710             	3.04371191e+02
711             	3.04371191e+02
712             	3.04371190e+02
713             	3.04371190e+02
714             	3.04371189e+02
715             	3.04371188e+02
716             	3.04371188e+02
717             	3.04371187e+02
718             	3.04371187e+02
719             	3.04371186e+02
720             	3.04371186e+02
721             	3.04371186e+02
722             	3.04371186e+02
723             	3.04371187e+02
724             	3.04371187e+02
725             	3.04371188e+02
726             	3.04371189e+02
727             	3.04371190e+02
728             	3.04371191e+02
729             	3.04371192e+02
730             	3.04371193e+02
731             	3.04371195e+02
732             	3.04371196e+02
733             	3.04371197e+02
734             	3.04371199e+02
735             	3.04371200e+02
736             	3.04371202e+02
737             	3.04371203e+02
738             	3.04371204e+02
739             	3.04371205e+02
740             	3.04371207e+02
741             	3.04371208e+02
742             	3.04371209e+02
743             	3.04371211e+02
744             	3.04371212e+02
745             	3.04371213e+02
746             	3.04371214e+02
747             	3.04371215e+02
748             	3.04371216e+02
749             	3.04371217e+02
750             	3.04371218e+02
751             	3.04371219e+02
752             	3.04371219e+02
753             	3.04371220e+02
754             	3.04371220e+02
755             	3.04371220e+02
756             	3.04371220e+02
757             	3.04371220e+02
758             	3.04371219e+02
759             	3.04371219e+02
760             	3.04371218e+02
761             	3.04371218e+02
762             	3.04371217e+02
763             	3.04371216e+02
764             	3.04371215e+02
765             	3.04371214e+02
766             	3.04371213e+02
767             	3.04371212e+02
768             	3.04371211e+02
769             	3.04371211e+02
770             	3.04371210e+02
771             	3.04371209e+02
772             	3.04371209e+02
773             	3.04371209e+02
774             	3.04371209e+02
775             	3.04371208e+02
776             	3.04371208e+02
777             	3.04371207e+02
778             	3.04371207e+02
779             	3.04371207e+02
780             	3.04371207e+02
781             	3.04371207e+02
782             	3.04371207e+02
783             	3.04371206e+02
784             	3.04371206e+02
785             	3.04371205e+02
786             	3.04371205e+02
787             	3.04371205e+02
788             	3.04371205e+02
789             	3.04371204e+02
790             	3.04371204e+02
791             	3.04371204e+02
792             	3.04371205e+02
793             	3.04371205e+02
794             	3.04371206e+02
795             	3.04371207e+02
796             	3.04371208e+02
797             	3.04371210e+02
798             	3.04371211e+02
799             	3.04371212e+02
800             	3.04371213e+02
801             	3.04371214e+02
802             	3.04371214e+02
803             	3.04371214e+02
804             	3.04371213e+02
805             	3.04371213e+02
806             	3.04371212e+02
807             	3.04371212e+02
808             	3.04371212e+02
809             	3.04371212e+02
810             	3.04371212e+02
811             	3.04371213e+02
812             	3.04371213e+02
813             	3.04371214e+02
814             	3.04371214e+02
815             	3.04371215e+02
816             	3.04371215e+02
817             	3.04371216e+02
818             	3.04371215e+02
819             	3.04371215e+02
820             	3.04371215e+02
821             	3.04371215e+02
822             	3.04371215e+02
823             	3.04371214e+02
824             	3.04371213e+02
825             	3.04371213e+02
826             	3.04371213e+02
827             	3.04371213e+02
828             	3.04371213e+02
829             	3.04371213e+02
830             	3.04371213e+02
831             	3.04371213e+02
832             	3.04371213e+02
833             	3.04371213e+02
834             	3.04371214e+02
835             	3.04371214e+02
836             	3.04371214e+02
837             	3.04371214e+02
838             	3.04371213e+02
839             	3.04371213e+02
840             	3.04371213e+02
841             	3.04371213e+02
842             	3.04371213e+02
843             	3.04371213e+02
844             	3.04371213e+02
845             	3.04371213e+02
846             	3.04371213e+02
847             	3.04371213e+02
848             	3.04371213e+02
849             	3.04371213e+02
850             	3.04371213e+02
851             	3.04371213e+02
852             	3.04371213e+02
853             	3.04371213e+02
854             	3.04371213e+02
855             	3.04371214e+02
856             	3.04371214e+02
857             	3.04371214e+02
858             	3.04371214e+02
859             	3.04371214e+02
860             	3.04371214e+02
861             	3.04371214e+02
862             	3.04371214e+02
863             	3.04371214e+02
864             	3.04371214e+02
865             	3.04371214e+02
866             	3.04371214e+02
867             	3.04371214e+02
868             	3.04371214e+02
869             	3.04371214e+02
870             	3.04371214e+02
871             	3.04371214e+02
872             	3.04371214e+02
873             	3.04371214e+02
874             	3.04371214e+02
875             	3.04371214e+02
876             	3.04371214e+02
877             	3.04371214e+02
878             	3.04371214e+02
879             	3.04371214e+02
880             	3.04371214e+02
881             	3.04371214e+02
882             	3.04371214e+02
883             	3.04371214e+02
884             	3.04371214e+02
885             	3.04371214e+02
886             	3.04371214e+02
887             	3.04371214e+02
888             	3.04371214e+02
889             	3.04371214e+02
890             	3.04371214e+02
891             	3.04371214e+02
892             	3.04371214e+02
893             	3.04371214e+02
894             	3.04371214e+02
895             	3.04371214e+02
896             	3.04371214e+02
897             	3.04371214e+02
898             	3.04371214e+02
899             	3.04371214e+02
900             	3.04371214e+02
901             	3.04371214e+02
902             	3.04371214e+02
903             	3.04371214e+02
904             	3.04371214e+02
905             	3.04371214e+02
906             	3.04371214e+02
907             	3.04371214e+02
908             	3.04371214e+02
909             	3.04371214e+02
910             	3.04371214e+02
911             	3.04371214e+02
912             	3.04371214e+02
913             	3.04371214e+02
914             	3.04371214e+02
915             	3.04371214e+02
916             	3.04371214e+02
917             	3.04371214e+02
918             	3.04371214e+02
919             	3.04371214e+02
920             	3.04371214e+02
921             	3.04371214e+02
922             	3.04371214e+02
923             	3.04371214e+02
924             	3.04371214e+02
925             	3.04371214e+02
926             	3.04371214e+02
927             	3.04371214e+02
928             	3.04371214e+02
929             	3.04371214e+02
930             	3.04371214e+02
931             	3.04371214e+02
932             	3.04371214e+02
933             	3.04371214e+02