# Region        : cellZone pcb
# Cells         : 389
# Volume        : 6.90115039e-01
# Time          	volAverage(T)
1               	3.00025348e+02
2               	3.00073961e+02
3               	3.00142560e+02
4               	3.00230183e+02
5               	3.00328278e+02
6               	3.00439113e+02
7               	3.00565071e+02
8               	3.00704692e+02
9               	3.00857868e+02
10              	3.01024490e+02
11              	3.01204795e+02
12              	3.01395870e+02
13              	3.01596017e+02
14              	3.01811816e+02
15              	3.02033350e+02
16              	3.02249400e+02
17              	3.02472110e+02
18              	3.02697181e+02
19              	3.02940550e+02
20              	3.03201133e+02
21              	3.03465000e+02
22              	3.03726052e+02
23              	3.03973466e+02
24              	3.04238155e+02
25              	3.04521798e+02
26              	3.04811139e+02
27              	3.05103872e+02
28              	3.05396120e+02
29              	3.05689908e+02
30              	3.05982771e+02
31              	3.06269121e+02
32              	3.06555576e+02
33              	3.06841168e+02
34              	3.07154936e+02
35              	3.07470553e+02
36              	3.07784577e+02
37              	3.08107041e+02
38              	3.08418893e+02
39              	3.08729681e+02
40              	3.09039258e+02
41              	3.09340790e+02
42              	3.09639800e+02
43              	3.09929541e+02
44              	3.10211389e+02
45              	3.10494075e+02
46              	3.10767542e+02
47              	3.11036869e+02
48              	3.11312409e+02
49              	3.11583198e+02
50              	3.11855457e+02
51              	3.12131991e+02
52              	3.12409059e+02
53              	3.12676705e+02
54              	3.12947737e+02
55              	3.13226255e+02
56              	3.13498076e+02
57              	3.13750622e+02
58              	3.14014118e+02
59              	3.14286037e+02
60              	3.14529368e+02
61              	3.14748331e+02
62              	3.14970914e+02
63              	3.15206631e+02
64              	3.15436370e+02
65              	3.15663422e+02
66              	3.15892379e+02
67              	3.16124077e+02
68              	3.16362533e+02
69              	3.16604344e+02
70              	3.16837349e+02
71              	3.17063659e+02
72              	3.17281933e+02
73              	3.17496850e+02
74              	3.17696832e+02
75              	3.17892884e+02
76              	3.18079110e+02
77              	3.18261481e+02
78              	3.18448609e+02
79              	3.18634507e+02
80              	3.18822266e+02
81              	3.19020043e+02
82              	3.19220640e+02
83              	3.19409232e+02
84              	3.19598630e+02
85              	3.19795067e+02
86              	3.19993906e+02
87              	3.20179054e+02
88              	3.20325779e+02
89              	3.20493037e+02
90              	3.20672385e+02
91              	3.20817230e+02
92              	3.20973296e+02
93              	3.21121996e+02
94              	3.21273707e+02
95              	3.21417012e+02
96              	3.21552560e+02
97              	3.21703120e+02
98              	3.21860764e+02
99              	3.22027898e+02
100             	3.22188648e+02
101             	3.22321398e+02
102             	3.22457079e+02
103             	3.22596887e+02
104             	3.22689267e+02
105             	3.22795443e+02
106             	3.22901895e+02
107             	3.23001622e+02
108             	3.23115295e+02
109             	3.23231027e+02
110             	3.23358243e+02
111             	3.23491203e+02
112             	3.23622680e+02
113             	3.23746093e+02
114             	3.23835424e+02
115             	3.23906163e+02
116             	3.23983718e+02
117             	3.24066597e+02
118             	3.24166575e+02
119             	3.24238471e+02
120             	3.24291767e+02
121             	3.24358212e+02
122             	3.24449904e+02
123             	3.24556125e+02
124             	3.24648068e+02
125             	3.24718460e+02
126             	3.24787014e+02
127             	3.24862130e+02
128             	3.24916328e+02
129             	3.24962583e+02
130             	3.25006957e+02
131             	3.25025960e+02
132             	3.25060107e+02
133             	3.25089861e+02
134             	3.25107380e+02
135             	3.25151639e+02
136             	3.25217077e+02
137             	3.25286015e+02
138             	3.25349596e+02
139             	3.25417477e+02
140             	3.25489277e+02
141             	3.25528840e+02
142             	3.25567100e+02
143             	3.25602749e+02
144             	3.25615985e+02
145             	3.25642821e+02
146             	3.25678586e+02
147             	3.25713291e+02
148             	3.25752183e+02
149             	3.25797839e+02
150             	3.25853504e+02
151             	3.25890064e+02
152             	3.25913101e+02
153             	3.25962651e+02
154             	3.26027915e+02
155             	3.26082852e+02
156             	3.26113393e+02
157             	3.26122205e+02
158             	3.26142234e+02
159             	3.26156052e+02
160             	3.26175475e+02
161             	3.26190618e+02
162             	3.26209581e+02
163             	3.26248623e+02
164             	3.26293125e+02
165             	3.26338464e+02
166             	3.26380478e+02
167             	3.26416602e+02
168             	3.26433236e+02
169             	3.26453705e+02
170             	3.26488415e+02
171             	3.26497388e+02
172             	3.26515747e+02
173             	3.26529513e+02
174             	3.26538464e+02
175             	3.26562890e+02
176             	3.26591336e+02
177             	3.26628589e+02
178             	3.26679491e+02
179             	3.26721772e+02
180             	3.26773555e+02
181             	3.26821538e+02
182             	3.26858914e+02
183             	3.26894293e+02
184             	3.26935950e+02
185             	3.26942021e+02
186             	3.26939434e+02
187             	3.26953408e+02
188             	3.26959581e+02
189             	3.26971612e+02
190             	3.26991507e+02
191             	3.27027919e+02
192             	3.27082838e+02
193             	3.27130773e+02
194             	3.27169428e+02
195             	3.27194108e+02
196             	3.27206399e+02
197             	3.27225626e+02
198             	3.27243346e+02
199             	3.27230558e+02
200             	3.27241398e+02
201             	3.27275347e+02
202             	3.27283496e+02
203             	3.27328256e+02
204             	3.27358980e+02
205             	3.27365041e+02
206             	3.27394215e+02
207             	3.27440749e+02
208             	3.27486092e+02
209             	3.27505477e+02
210             	3.27525122e+02
211             	3.27546684e+02
212             	3.27538296e+02
213             	3.27532113e+02
214             	3.27518873e+02
215             	3.27517678e+02
216             	3.27529679e+02
217             	3.27555235e+02
218             	3.27591971e+02
219             	3.27637133e+02
220             	3.27691497e+02
221             	3.27743776e+02
222             	3.27788166e+02
223             	3.27824795e+02
224             	3.27843377e+02
225             	3.27867451e+02
226             	3.27885115e+02
227             	3.27872955e+02
228             	3.27880020e+02
229             	3.27884393e+02
230             	3.27890674e+02
231             	3.27903829e+02
232             	3.27920704e+02
233             	3.27949335e+02
234             	3.27995808e+02
235             	3.28037021e+02
236             	3.28071293e+02
237             	3.28100646e+02
238             	3.28128569e+02
239             	3.28160402e+02
240             	3.28188929e+02
241             	3.28211097e+02
242             	3.28229142e+02
243             	3.28249194e+02
244             	3.28273736e+02
245             	3.28298613e+02
246             	3.28328252e+02
247             	3.28345779e+02
248             	3.28359481e+02
249             	3.28372355e+02
250             	3.28385644e+02
251             	3.28406277e+02
252             	3.28427677e+02
253             	3.28451005e+02
254             	3.28480326e+02
255             	3.28512292e+02
256             	3.28553821e+02
257             	3.28596531e+02
258             	3.28637714e+02
259             	3.28669828e+02
260             	3.28697370e+02
261             	3.28707371e+02
262             	3.28711912e+02
263             	3.28712925e+02
264             	3.28719208e+02
265             	3.28731181e+02
266             	3.28746292e+02
267             	3.28768390e+02
268             	3.28789819e+02
269             	3.28816482e+02
270             	3.28853303e+02
271             	3.28896370e+02
272             	3.28940228e+02
273             	3.28979577e+02
274             	3.29023285e+02
275             	3.29061146e+02
276             	3.29090120e+02
277             	3.29117827e+02
278             	3.29135419e+02
279             	3.29139051e+02
280             	3.29150192e+02
281             	3.29170345e+02
282             	3.29184215e+02
283             	3.29195248e+02
284             	3.29212174e+02
285             	3.29235344e+02
286             	3.29263126e+02
287             	3.29297101e+02
288             	3.29332460e+02
289             	3.29359520e+02
290             	3.29378235e+02
291             	3.29400292e+02
292             	3.29424552e+02
293             	3.29451215e+02
294             	3.29478140e+02
295             	3.29505001e+02
296             	3.29533853e+02
297             	3.29559757e+02
298             	3.29577407e+02
299             	3.29592912e+02
300             	3.29606612e+02
301             	3.29624287e+02
302             	3.29642410e+02
303             	3.29660414e+02
304             	3.29680102e+02
305             	3.29705592e+02
306             	3.29738490e+02
307             	3.29770267e+02
308             	3.29798939e+02
309             	3.29829718e+02
310             	3.29865524e+02
311             	3.29901763e+02
312             	3.29931690e+02
313             	3.29941198e+02
314             	3.29945259e+02
315             	3.29951521e+02
316             	3.29959983e+02
317             	3.29973434e+02
318             	3.29991842e+02
319             	3.30014614e+02
320             	3.30040996e+02
321             	3.30072097e+02
322             	3.30109866e+02
323             	3.30145363e+02
324             	3.30171278e+02
325             	3.30194038e+02
326             	3.30201982e+02
327             	3.30204403e+02
328             	3.30208721e+02
329             	3.30216530e+02
330             	3.30225539e+02
331             	3.30235618e+02
332             	3.30251262e+02
333             	3.30272280e+02
334             	3.30296101e+02
335             	3.30322603e+02
336             	3.30348224e+02
337             	3.30371225e+02
338             	3.30394290e+02
339             	3.30416091e+02
340             	3.30435940e+02
341             	3.30454412e+02
342             	3.30471472e+02
343             	3.30481416e+02
344             	3.30489053e+02
345             	3.30503121e+02
346             	3.30515721e+02
347             	3.30526835e+02
348             	3.30539338e+02
349             	3.30553447e+02
350             	3.30572620e+02
351             	3.30591051e+02
352             	3.30606025e+02
353             	3.30625056e+02
354             	3.30644435e+02
355             	3.30663847e+02
356             	3.30683445e+02
357             	3.30700491e+02
358             	3.30716773e+02
359             	3.30732983e+02
360             	3.30748564e+02
361             	3.30760386e+02
362             	3.30769251e+02
363             	3.30778898e+02
364             	3.30788675e+02
365             	3.30800402e+02
366             	3.30812613e+02
367             	3.30825460e+02
368             	3.30839014e+02
369             	3.30852646e+02
370             	3.30866404e+02
371             	3.30880317e+02
372             	3.30896469e+02
373             	3.30913438e+02
374             	3.30930019e+02
375             	3.30946177e+02
376             	3.30963304e+02
377             	3.30979761e+02
378             	3.30995823e+02
379             	3.31009906e+02
380             	3.31021499e+02
381             	3.31031808e+02
382             	3.31043141e+02
383             	3.31054900e+02
384             	3.31064922e+02
385             	3.31074917e+02
386             	3.31086212e+02
387             	3.31098018e+02
388             	3.31107826e+02
389             	3.31117431e+02
390             	3.31128849e+02
391             	3.31140466e+02
392             	3.31152532e+02
393             	3.31167128e+02
394             	3.31182185e+02
395             	3.31197302e+02
396             	3.31210816e+02
397             	3.31223815e+02
398             	3.31236362e+02
399             	3.31248692e+02
400             	3.31260217e+02
401             	3.31270932e+02
402             	3.31279646e+02
403             	3.31288276e+02
404             	3.31295778e+02
405             	3.31302667e+02
406             	3.31308955e+02
407             	3.31316121e+02
408             	3.31323156e+02
409             	3.31332242e+02
410             	3.31342860e+02
411             	3.31353995e+02
412             	3.31365406e+02
413             	3.31378290e+02
414             	3.31390418e+02
415             	3.31401743e+02
416             	3.31412682e+02
417             	3.31423060e+02
418             	3.31433244e+02
419             	3.31442853e+02
420             	3.31451842e+02
421             	3.31459919e+02
422             	3.31467230e+02
423             	3.31474014e+02
424             	3.31480580e+02
425             	3.31487634e+02
426             	3.31495033e+02
427             	3.31502653e+02
428             	3.31510539e+02
429             	3.31518660e+02
430             	3.31526960e+02
431             	3.31534813e+02
432             	3.31543075e+02
433             	3.31553267e+02
434             	3.31563299e+02
435             	3.31573249e+02
436             	3.31582622e+02
437             	3.31591671e+02
438             	3.31600579e+02
439             	3.31608095e+02
440             	3.31613964e+02
441             	3.31618528e+02
442             	3.31623452e+02
443             	3.31628940e+02
444             	3.31634959e+02
445             	3.31640826e+02
446             	3.31646566e+02
447             	3.31652463e+02
448             	3.31658565e+02
449             	3.31665496e+02
450             	3.31672991e+02
451             	3.31679507e+02
452             	3.31686121e+02
453             	3.31693881e+02
454             	3.31701882e+02
455             	3.31709958e+02
456             	3.31717865e+02
457             	3.31724975e+02
458             	3.31730806e+02
459             	3.31735877e+02
460             	3.31740726e+02
461             	3.31745617e+02
462             	3.31750635e+02
463             	3.31755762e+02
464             	3.31760895e+02
465             	3.31765771e+02
466             	3.31770339e+02
467             	3.31774734e+02
468             	3.31779193e+02
469             	3.31784467e+02
470             	3.31790223e+02
471             	3.31795831e+02
472             	3.31801302e+02
473             	3.31806185e+02
474             	3.31810386e+02
475             	3.31814169e+02
476             	3.31818366e+02
477             	3.31823275e+02
478             	3.31828651e+02
479             	3.31834451e+02
480             	3.31840343e+02
481             	3.31846035e+02
482             	3.31851480e+02
483             	3.31856729e+02
484             	3.31861753e+02
485             	3.31866580e+02
486             	3.31871237e+02
487             	3.31875784e+02
488             	3.31880449e+02
489             	3.31885089e+02
490             	3.31889568e+02
491             	3.31893914e+02
492             	3.31898140e+02
493             	3.31902221e+02
494             	3.31905917e+02
495             	3.31909227e+02
496             	3.31912255e+02
497             	3.31915463e+02
498             	3.31918524e+02
499             	3.31921669e+02
500             	3.31925214e+02
501             	3.31928945e+02
502             	3.31932679e+02
503             	3.31936358e+02
504             	3.31939857e+02
505             	3.31943187e+02
506             	3.31946293e+02
507             	3.31949157e+02
508             	3.31951851e+02
509             	3.31954792e+02
510             	3.31957929e+02
511             	3.31961102e+02
512             	3.31964345e+02
513             	3.31967464e+02
514             	3.31970430e+02
515             	3.31973235e+02
516             	3.31975911e+02
517             	3.31978495e+02
518             	3.31981105e+02
519             	3.31984218e+02
520             	3.31987504e+02
521             	3.31990630e+02
522             	3.31993740e+02
523             	3.31996616e+02
524             	3.31999113e+02
525             	3.32001242e+02
526             	3.32003226e+02
527             	3.32005237e+02
528             	3.32007330e+02
529             	3.32009374e+02
530             	3.32011668e+02
531             	3.32014660e+02
532             	3.32017759e+02
533             	3.32020754e+02
534             	3.32023687e+02
535             	3.32026544e+02
536             	3.32029277e+02
537             	3.32031832e+02
538             	3.32034146e+02
539             	3.32036148e+02
540             	3.32037918e+02
541             	3.32039992e+02
542             	3.32042339e+02
543             	3.32044663e+02
544             	3.32046903e+02
545             	3.32049084e+02
546             	3.32050927e+02
547             	3.32052490e+02
548             	3.32053884e+02
549             	3.32055207e+02
550             	3.32056589e+02
551             	3.32058129e+02
552             	3.32059772e+02
553             	3.32061538e+02
554             	3.32063410e+02
555             	3.32065296e+02
556             	3.32067144e+02
557             	3.32068904e+02
558             	3.32070572e+02
559             	3.32072187e+02
560             	3.32073757e+02
561             	3.32075352e+02
562             	3.32076938e+02
563             	3.32078538e+02
564             	3.32080171e+02
565             	3.32081867e+02
566             	3.32083650e+02
567             	3.32085404e+02
568             	3.32087082e+02
569             	3.32088627e+02
570             	3.32090042e+02
571             	3.32091371e+02
572             	3.32092706e+02
573             	3.32094108e+02
574             	3.32095524e+02
575             	3.32097070e+02
576             	3.32098626e+02
577             	3.32100130e+02
578             	3.32101581e+02
579             	3.32102983e+02
580             	3.32104347e+02
581             	3.32105671e+02
582             	3.32106952e+02
583             	3.32108158e+02
584             	3.32109261e+02
585             	3.32110303e+02
586             	3.32111341e+02
587             	3.32112349e+02
588             	3.32113327e+02
589             	3.32114302e+02
590             	3.32115271e+02
591             	3.32116232e+02
592             	3.32117182e+02
593             	3.32118118e+02
594             	3.32119031e+02
595             	3.32119933e+02
596             	3.32120823e+02
597             	3.32121700e+02
598             	3.32122554e+02
599             	3.32123400e+02
600             	3.32124253e+02
601             	3.32125139e+02
602             	3.32126003e+02
603             	3.32126846e+02
604             	3.32127692e+02
605             	3.32128544e+02
606             	3.32129428e+02
607             	3.32130344e+02
608             	3.32131277e+02
609             	3.32132212e+02
610             	3.32133128e+02
611             	3.32134036e+02
612             	3.32134943e+02
613             	3.32135854e+02
614             	3.32136765e+02
615             	3.32137663e+02
616             	3.32138559e+02
617             	3.32139449e+02
618             	3.32140317e+02
619             	3.32141162e+02
620             	3.32141978e+02
621             	3.32142759e+02
622             	3.32143475e+02
623             	3.32144168e+02
624             	3.32144859e+02
625             	3.32145551e+02
626             	3.32146244e+02
627             	3.32146952e+02
628             	3.32147661e+02
629             	3.32148355e+02
630             	3.32149002e+02
631             	3.32149576e+02
632             	3.32150039e+02
633             	3.32150414e+02
634             	3.32150750e+02
635             	3.32151082e+02
636             	3.32151445e+02
637             	3.32151890e+02
638             	3.32152400e+02
639             	3.32152943e+02
640             	3.32153487e+02
641             	3.32154029e+02
642             	3.32154541e+02
643             	3.32155021e+02
644             	3.32155475e+02
645             	3.32155908e+02
646             	3.32156327e+02
647             	3.32156761e+02
648             	3.32157222e+02
649             	3.32157716e+02
650             	3.32158234e+02
651             	3.32158768e+02
652             	3.32159302e+02
653             	3.32159832e+02
654             	3.32160349e+02
655             	3.32160858e+02
656             	3.32161362e+02
657             	3.32161864e+02
658             	3.32162357e+02
659             	3.32162852e+02
660             	3.32163358e+02
661             	3.32163846e+02
662             	3.32164311e+02
663             	3.32164772e+02
664             	3.32165224e+02
665             	3.32165658e+02
666             	3.32166062e+02
667             	3.32166434e+02
668             	3.32166781e+02
669             	3.32167095e+02
670             	3.32167380e+02
671             	3.32167659e+02
672             	3.32167945e+02
673             	3.32168232e+02
674             	3.32168514e+02
675             	3.32168798e+02
676             	3.32169075e+02
677             	3.32169343e+02
678             	3.32169595e+02
679             	3.32169840e+02
680             	3.32170063e+02
681             	3.32170330e+02
682             	3.32170638e+02
683             	3.32170951e+02
684             	3.32171263e+02
685             	3.32171556e+02
686             	3.32171821e+02
687             	3.32172070e+02
688             	3.32172300e+02
689             	3.32172549e+02
690             	3.32172817e+02
691             	3.32173093e+02
692             	3.32173390e+02
693             	3.32173664e+02
694             	3.32173916e+02
695             	3.32174178e+02
696             	3.32174448e+02
697             	3.32174724e+02
698             	3.32175032e+02
699             	3.32175298e+02
700             	3.32175517e+02
701             	3.32175733e+02
702             	3.32175976e+02
703             	3.32176228e+02
704             	3.32176499e+02
705             	3.32176768e+02
706             	3.32177017e+02
707             	3.32177248e+02
708             	3.32177463e+02
709             	3.32177672e+02
710             	3.32177871e+02
711             	3.32178083e+02
712             	3.32178293e+02
713             	3.32178497e+02
714             	3.32178685e+02
715             	3.32178872e+02
716             	3.32179052e+02
717             	3.32179234e+02
718             	3.32179409e+02
719             	3.32179568e+02
720             	3.32179704e+02
721             	3.32179826e+02
722             	3.32179950e+02
723             	3.32180121e+02
724             	3.32180289e+02
725             	3.32180452e+02
726             	3.32180621e+02
727             	3.32180801e+02
728             	3.32180985e+02
729             	3.32181171e+02
730             	3.32181353e+02
731             	3.32181535e+02
732             	3.32181716e+02
733             	3.32181889e+02
734             	3.32182068e+02
735             	3.32182239e+02
736             	3.32182398e+02
737             	3.32182557e+02
738             	3.32182711e+02
739             	3.32182903e+02
740             	3.32183122e+02
741             	3.32183371e+02
742             	3.32183626e+02
743             	3.32183862e+02
744             	3.32184077e+02
745             	3.32184279e+02
746             	3.32184451e+02
747             	3.32184608e+02
748             	3.32184746e+02
749             	3.32184853e+02
750             	3.32184943e+02
751             	3.32185033e+02
752             	3.32185135e+02
753             	3.32185256e+02
754             	3.32185390e+02
755             	3.32185527e+02
756             	3.32185658e+02
757             	3.32185784e+02
758             	3.32185884e+02
759             	3.32185964e+02
760             	3.32186036e+02
761             	3.32186105e+02
762             	3.32186176e+02
763             	3.32186232e+02
764             	3.32186339e+02
765             	3.32186497e+02
766             	3.32186669e+02
767             	3.32186839e+02
768             	3.32187002e+02
769             	3.32187138e+02
770             	3.32187249e+02
771             	3.32187350e+02
772             	3.32187444e+02
773             	3.32187540e+02
774             	3.32187638e+02
775             	3.32187746e+02
776             	3.32187861e+02
777             	3.32187986e+02
778             	3.32188123e+02
779             	3.32188260e+02
780             	3.32188393e+02
781             	3.32188527e+02
782             	3.32188661e+02
783             	3.32188797e+02
784             	3.32188932e+02
785             	3.32189066e+02
786             	3.32189190e+02
787             	3.32189311e+02
788             	3.32189426e+02
789             	3.32189540e+02
790             	3.32189656e+02
791             	3.32189764e+02
792             	3.32189858e+02
793             	3.32189946e+02
794             	3.32190020e+02
795             	3.32190087e+02
796             	3.32190146e+02
797             	3.32190200e+02
798             	3.32190251e+02
799             	3.32190305e+02
800             	3.32190360e+02
801             	3.32190419e+02
802             	3.32190479e+02
803             	3.32190542e+02
804             	3.32190600e+02
805             	3.32190658e+02
806             	3.32190713e+02
807             	3.32190767e+02
808             	3.32190815e+02
809             	3.32190864e+02
810             	3.32190916e+02
811             	3.32190975e+02
812             	3.32191034e+02
813             	3.32191094e+02
814             	3.32191153e+02
815             	3.32191212e+02
816             	3.32191271e+02
817             	3.32191335e+02
818             	3.32191400e+02
819             	3.32191482e+02
820             	3.32191574e+02
821             	3.32191673e+02
822             	3.32191770e+02
823             	3.32191866e+02
824             	3.32191957e+02
825             	3.32192047e+02
826             	3.32192130e+02
827             	3.32192208e+02
828             	3.32192279e+02
829             	3.32192347e+02
830             	3.32192404e+02
831             	3.32192453e+02
832             	3.32192496e+02
833             	3.32192539e+02
834             	3.32192582e+02
835             	3.32192627e+02
836             	3.32192672e+02
837             	3.32192717e+02
838             	3.32192759e+02
839             	3.32192803e+02
840             	3.32192843e+02
841             	3.32192880e+02
842             	3.32192911e+02
843             	3.32192940e+02
844             	3.32192962e+02
845             	3.32192982e+02
846             	3.32192999e+02
847             	3.32193020e+02
848             	3.32193043e+02
849             	3.32193067e+02
850             	3.32193094e+02
851             	3.32193127e+02
852             	3.32193162e+02
853             	3.32193201e+02
854             	3.32193243e+02
855             	3.32193293e+02
856             	3.32193344e+02
857             	3.32193398e+02
858             	3.32193452e+02
859             	3.32193506e+02
860             	3.32193558e+02
861             	3.32193610e+02
862             	3.32193659e+02
863             	3.32193709e+02
864             	3.32193755e+02
865             	3.32193800e+02
866             	3.32193840e+02
867             	3.32193881e+02
868             	3.32193922e+02
869             	3.32193965e+02
870             	3.32194010e+02
871             	3.32194055e+02
872             	3.32194096e+02
873             	3.32194136e+02
874             	3.32194168e+02
875             	3.32194194e+02
876             	3.32194212e+02
877             	3.32194227e+02
878             	3.32194236e+02
879             	3.32194245e+02
880             	3.32194259e+02
881             	3.32194268e+02
882             	3.32194266e+02
883             	3.32194264e+02
884             	3.32194260e+02
885             	3.32194257e+02
886             	3.32194254e+02
887             	3.32194253e+02
888             	3.32194261e+02
889             	3.32194286e+02
890             	3.32194316e+02
891             	3.32194354e+02
892             	3.32194392e+02
893             	3.32194431e+02
894             	3.32194466e+02
895             	3.32194499e+02
896             	3.32194526e+02
897             	3.32194551e+02
898             	3.32194573e+02
899             	3.32194597e+02
900             	3.32194622e+02
901             	3.32194654e+02
902             	3.32194687e+02
903             	3.32194722e+02
904             	3.32194757e+02
905             	3.32194793e+02
906             	3.32194824e+02
907             	3.32194854e+02
908             	3.32194885e+02
909             	3.32194908e+02
910             	3.32194920e+02
911             	3.32194932e+02
912             	3.32194942e+02
913             	3.32194954e+02
914             	3.32194966e+02
915             	3.32194979e+02
916             	3.32194991e+02
917             	3.32195001e+02
918             	3.32195007e+02
919             	3.32195012e+02
920             	3.32195013e+02
921             	3.32195015e+02
922             	3.32195016e+02
923             	3.32195020e+02
924             	3.32195025e+02
925             	3.32195034e+02
926             	3.32195039e+02
927             	3.32195050e+02
928             	3.32195058e+02
929             	3.32195075e+02
930             	3.32195097e+02
931             	3.32195122e+02
932             	3.32195143e+02
933             	3.32195165e+02