# Region        : cellZone component_3
# Cells         : 224
# Volume        : 3.95615328e-01
# Time          	volAverage(T)
1               	3.00178841e+02
2               	3.00355490e+02
3               	3.00523465e+02
4               	3.00685047e+02
5               	3.00842222e+02
6               	3.00995838e+02
7               	3.01146293e+02
8               	3.01293956e+02
9               	3.01439169e+02
10              	3.01582404e+02
11              	3.01723767e+02
12              	3.01863422e+02
13              	3.01999852e+02
14              	3.02134090e+02
15              	3.02265976e+02
16              	3.02397135e+02
17              	3.02527187e+02
18              	3.02656156e+02
19              	3.02783682e+02
20              	3.02907458e+02
21              	3.03031742e+02
22              	3.03153074e+02
23              	3.03272731e+02
24              	3.03392534e+02
25              	3.03509851e+02
26              	3.03624472e+02
27              	3.03736991e+02
28              	3.03847482e+02
29              	3.03956420e+02
30              	3.04064173e+02
31              	3.04171335e+02
32              	3.04278478e+02
33              	3.04384346e+02
34              	3.04488233e+02
35              	3.04590015e+02
36              	3.04691051e+02
37              	3.04791311e+02
38              	3.04889754e+02
39              	3.04987444e+02
40              	3.05085748e+02
41              	3.05178234e+02
42              	3.05262332e+02
43              	3.05340723e+02
44              	3.05416780e+02
45              	3.05492114e+02
46              	3.05567250e+02
47              	3.05642909e+02
48              	3.05718144e+02
49              	3.05793923e+02
50              	3.05869552e+02
51              	3.05946442e+02
52              	3.06023284e+02
53              	3.06100464e+02
54              	3.06175158e+02
55              	3.06250646e+02
56              	3.06317939e+02
57              	3.06387292e+02
58              	3.06458242e+02
59              	3.06529110e+02
60              	3.06598612e+02
61              	3.06670742e+02
62              	3.06741058e+02
63              	3.06809153e+02
64              	3.06877552e+02
65              	3.06944270e+02
66              	3.07009686e+02
67              	3.07072829e+02
68              	3.07134751e+02
69              	3.07196341e+02
70              	3.07257355e+02
71              	3.07318676e+02
72              	3.07376111e+02
73              	3.07434951e+02
74              	3.07493263e+02
75              	3.07545999e+02
76              	3.07594137e+02
77              	3.07642446e+02
78              	3.07692301e+02
79              	3.07741622e+02
80              	3.07789325e+02
81              	3.07836233e+02
82              	3.07879641e+02
83              	3.07924240e+02
84              	3.07968861e+02
85              	3.08012231e+02
86              	3.08055421e+02
87              	3.08101194e+02
88              	3.08124367e+02
89              	3.08132751e+02
90              	3.08141823e+02
91              	3.08161012e+02
92              	3.08184537e+02
93              	3.08211260e+02
94              	3.08240086e+02
95              	3.08270933e+02
96              	3.08301897e+02
97              	3.08335845e+02
98              	3.08373148e+02
99              	3.08413807e+02
100             	3.08453949e+02
101             	3.08486089e+02
102             	3.08508865e+02
103             	3.08523513e+02
104             	3.08547447e+02
105             	3.08572269e+02
106             	3.08603303e+02
107             	3.08635482e+02
108             	3.08667689e+02
109             	3.08698810e+02
110             	3.08727056e+02
111             	3.08753203e+02
112             	3.08777816e+02
113             	3.08804425e+02
114             	3.08841777e+02
115             	3.08867602e+02
116             	3.08866590e+02
117             	3.08856951e+02
118             	3.08848458e+02
119             	3.08852944e+02
120             	3.08864912e+02
121             	3.08875804e+02
122             	3.08890192e+02
123             	3.08907958e+02
124             	3.08926379e+02
125             	3.08940705e+02
126             	3.08950079e+02
127             	3.08959717e+02
128             	3.08974255e+02
129             	3.08997270e+02
130             	3.09021436e+02
131             	3.09044428e+02
132             	3.09067684e+02
133             	3.09091063e+02
134             	3.09115246e+02
135             	3.09141434e+02
136             	3.09169666e+02
137             	3.09200710e+02
138             	3.09234578e+02
139             	3.09269073e+02
140             	3.09304508e+02
141             	3.09340261e+02
142             	3.09376599e+02
143             	3.09412272e+02
144             	3.09448204e+02
145             	3.09482258e+02
146             	3.09514894e+02
147             	3.09547216e+02
148             	3.09578733e+02
149             	3.09609682e+02
150             	3.09640408e+02
151             	3.09671496e+02
152             	3.09701742e+02
153             	3.09730198e+02
154             	3.09757489e+02
155             	3.09785292e+02
156             	3.09813031e+02
157             	3.09841568e+02
158             	3.09870807e+02
159             	3.09900683e+02
160             	3.09930233e+02
161             	3.09960558e+02
162             	3.09989741e+02
163             	3.10017676e+02
164             	3.10044453e+02
165             	3.10069599e+02
166             	3.10093491e+02
167             	3.10116739e+02
168             	3.10140115e+02
169             	3.10164368e+02
170             	3.10190059e+02
171             	3.10216831e+02
172             	3.10246063e+02
173             	3.10275146e+02
174             	3.10304521e+02
175             	3.10332633e+02
176             	3.10357621e+02
177             	3.10378866e+02
178             	3.10397412e+02
179             	3.10413889e+02
180             	3.10430889e+02
181             	3.10445417e+02
182             	3.10457523e+02
183             	3.10475515e+02
184             	3.10493052e+02
185             	3.10512240e+02
186             	3.10526746e+02
187             	3.10540543e+02
188             	3.10555002e+02
189             	3.10568788e+02
190             	3.10581940e+02
191             	3.10595669e+02
192             	3.10610521e+02
193             	3.10626523e+02
194             	3.10643151e+02
195             	3.10661315e+02
196             	3.10679972e+02
197             	3.10700308e+02
198             	3.10721002e+02
199             	3.10741267e+02
200             	3.10761126e+02
201             	3.10780195e+02
202             	3.10798365e+02
203             	3.10815962e+02
204             	3.10832671e+02
205             	3.10848358e+02
206             	3.10863322e+02
207             	3.10877805e+02
208             	3.10892285e+02
209             	3.10907118e+02
210             	3.10922956e+02
211             	3.10939691e+02
212             	3.10957555e+02
213             	3.10975643e+02
214             	3.10993936e+02
215             	3.11012051e+02
216             	3.11029884e+02
217             	3.11047281e+02
218             	3.11064157e+02
219             	3.11080710e+02
220             	3.11096713e+02
221             	3.11112055e+02
222             	3.11126715e+02
223             	3.11140842e+02
224             	3.11154440e+02
225             	3.11168001e+02
226             	3.11181966e+02
227             	3.11196370e+02
228             	3.11211193e+02
229             	3.11226328e+02
230             	3.11241400e+02
231             	3.11256767e+02
232             	3.11272086e+02
233             	3.11286647e+02
234             	3.11300652e+02
235             	3.11313984e+02
236             	3.11326743e+02
237             	3.11339243e+02
238             	3.11351142e+02
239             	3.11363015e+02
240             	3.11374991e+02
241             	3.11387045e+02
242             	3.11399319e+02
243             	3.11411596e+02
244             	3.11424181e+02
245             	3.11435684e+02
246             	3.11447041e+02
247             	3.11458056e+02
248             	3.11468919e+02
249             	3.11479678e+02
250             	3.11490289e+02
251             	3.11500673e+02
252             	3.11510936e+02
253             	3.11521078e+02
254             	3.11531221e+02
255             	3.11541405e+02
256             	3.11551625e+02
257             	3.11561664e+02
258             	3.11571707e+02
259             	3.11581776e+02
260             	3.11591767e+02
261             	3.11601635e+02
262             	3.11611354e+02
263             	3.11620822e+02
264             	3.11630127e+02
265             	3.11639296e+02
266             	3.11648293e+02
267             	3.11657139e+02
268             	3.11665786e+02
269             	3.11674331e+02
270             	3.11682820e+02
271             	3.11691284e+02
272             	3.11699783e+02
273             	3.11708219e+02
274             	3.11716499e+02
275             	3.11724345e+02
276             	3.11731907e+02
277             	3.11739177e+02
278             	3.11746272e+02
279             	3.11753355e+02
280             	3.11760492e+02
281             	3.11767753e+02
282             	3.11775042e+02
283             	3.11782386e+02
284             	3.11789740e+02
285             	3.11797260e+02
286             	3.11804789e+02
287             	3.11812416e+02
288             	3.11820209e+02
289             	3.11827965e+02
290             	3.11835485e+02
291             	3.11842716e+02
292             	3.11849548e+02
293             	3.11856114e+02
294             	3.11862434e+02
295             	3.11868824e+02
296             	3.11875178e+02
297             	3.11881530e+02
298             	3.11888095e+02
299             	3.11894741e+02
300             	3.11901322e+02
301             	3.11908118e+02
302             	3.11914607e+02
303             	3.11920942e+02
304             	3.11927073e+02
305             	3.11932943e+02
306             	3.11938625e+02
307             	3.11944164e+02
308             	3.11949580e+02
309             	3.11954884e+02
310             	3.11960156e+02
311             	3.11965453e+02
312             	3.11970936e+02
313             	3.11976443e+02
314             	3.11981857e+02
315             	3.11987298e+02
316             	3.11992671e+02
317             	3.11998058e+02
318             	3.12003304e+02
319             	3.12008533e+02
320             	3.12013593e+02
321             	3.12018520e+02
322             	3.12023297e+02
323             	3.12027969e+02
324             	3.12032578e+02
325             	3.12037106e+02
326             	3.12041626e+02
327             	3.12045767e+02
328             	3.12049771e+02
329             	3.12053770e+02
330             	3.12057913e+02
331             	3.12062116e+02
332             	3.12066253e+02
333             	3.12070546e+02
334             	3.12074848e+02
335             	3.12079133e+02
336             	3.12083275e+02
337             	3.12087368e+02
338             	3.12091480e+02
339             	3.12095659e+02
340             	3.12099647e+02
341             	3.12103607e+02
342             	3.12107950e+02
343             	3.12112445e+02
344             	3.12117029e+02
345             	3.12121589e+02
346             	3.12126322e+02
347             	3.12130524e+02
348             	3.12134256e+02
349             	3.12137593e+02
350             	3.12140671e+02
351             	3.12143573e+02
352             	3.12146445e+02
353             	3.12149334e+02
354             	3.12152350e+02
355             	3.12155543e+02
356             	3.12158971e+02
357             	3.12162546e+02
358             	3.12166307e+02
359             	3.12170117e+02
360             	3.12173958e+02
361             	3.12177720e+02
362             	3.12181380e+02
363             	3.12184800e+02
364             	3.12188075e+02
365             	3.12191174e+02
366             	3.12194090e+02
367             	3.12196836e+02
368             	3.12199593e+02
369             	3.12202127e+02
370             	3.12204633e+02
371             	3.12207163e+02
372             	3.12209771e+02
373             	3.12212485e+02
374             	3.12215339e+02
375             	3.12218182e+02
376             	3.12221115e+02
377             	3.12223983e+02
378             	3.12226805e+02
379             	3.12229501e+02
380             	3.12232075e+02
381             	3.12234518e+02
382             	3.12236824e+02
383             	3.12239077e+02
384             	3.12241255e+02
385             	3.12243345e+02
386             	3.12245410e+02
387             	3.12247448e+02
388             	3.12249462e+02
389             	3.12251447e+02
390             	3.12253370e+02
391             	3.12255289e+02
392             	3.12257304e+02
393             	3.12259373e+02
394             	3.12261567e+02
395             	3.12263865e+02
396             	3.12266185e+02
397             	3.12268469e+02
398             	3.12270677e+02
399             	3.12272777e+02
400             	3.12274655e+02
401             	3.12276345e+02
402             	3.12277908e+02
403             	3.12279436e+02
404             	3.12281001e+02
405             	3.12282667e+02
406             	3.12284497e+02
407             	3.12286508e+02
408             	3.12288740e+02
409             	3.12291176e+02
410             	3.12293669e+02
411             	3.12296100e+02
412             	3.12298396e+02
413             	3.12300635e+02
414             	3.12302709e+02
415             	3.12304763e+02
416             	3.12306698e+02
417             	3.12308509e+02
418             	3.12310243e+02
419             	3.12311890e+02
420             	3.12313474e+02
421             	3.12314992e+02
422             	3.12316470e+02
423             	3.12317919e+02
424             	3.12319336e+02
425             	3.12320698e+02
426             	3.12321996e+02
427             	3.12323234e+02
428             	3.12324415e+02
429             	3.12325516e+02
430             	3.12326507e+02
431             	3.12327413e+02
432             	3.12328278e+02
433             	3.12329134e+02
434             	3.12330020e+02
435             	3.12330960e+02
436             	3.12331956e+02
437             	3.12333000e+02
438             	3.12334091e+02
439             	3.12335213e+02
440             	3.12336393e+02
441             	3.12337616e+02
442             	3.12338865e+02
443             	3.12340096e+02
444             	3.12341348e+02
445             	3.12342600e+02
446             	3.12343899e+02
447             	3.12345220e+02
448             	3.12346551e+02
449             	3.12347899e+02
450             	3.12349237e+02
451             	3.12350534e+02
452             	3.12351808e+02
453             	3.12353065e+02
454             	3.12354309e+02
455             	3.12355547e+02
456             	3.12356787e+02
457             	3.12358005e+02
458             	3.12359241e+02
459             	3.12360456e+02
460             	3.12361660e+02
461             	3.12362856e+02
462             	3.12364010e+02
463             	3.12365176e+02
464             	3.12366318e+02
465             	3.12367470e+02
466             	3.12368647e+02
467             	3.12369881e+02
468             	3.12371176e+02
469             	3.12372465e+02
470             	3.12373784e+02
471             	3.12375160e+02
472             	3.12376558e+02
473             	3.12377987e+02
474             	3.12379403e+02
475             	3.12380756e+02
476             	3.12381973e+02
477             	3.12383102e+02
478             	3.12384099e+02
479             	3.12384970e+02
480             	3.12385719e+02
481             	3.12386426e+02
482             	3.12387144e+02
483             	3.12387894e+02
484             	3.12388654e+02
485             	3.12389402e+02
486             	3.12390112e+02
487             	3.12390777e+02
488             	3.12391378e+02
489             	3.12391888e+02
490             	3.12392361e+02
491             	3.12392785e+02
492             	3.12393191e+02
493             	3.12393651e+02
494             	3.12394098e+02
495             	3.12394537e+02
496             	3.12394942e+02
497             	3.12395313e+02
498             	3.12395657e+02
499             	3.12396049e+02
500             	3.12396487e+02
501             	3.12396990e+02
502             	3.12397598e+02
503             	3.12398340e+02
504             	3.12399182e+02
505             	3.12400065e+02
506             	3.12400980e+02
507             	3.12401877e+02
508             	3.12402782e+02
509             	3.12403693e+02
510             	3.12404587e+02
511             	3.12405458e+02
512             	3.12406329e+02
513             	3.12407236e+02
514             	3.12408150e+02
515             	3.12409008e+02
516             	3.12409889e+02
517             	3.12410794e+02
518             	3.12411704e+02
519             	3.12412617e+02
520             	3.12413537e+02
521             	3.12414452e+02
522             	3.12415369e+02
523             	3.12416267e+02
524             	3.12417170e+02
525             	3.12418066e+02
526             	3.12418952e+02
527             	3.12419818e+02
528             	3.12420670e+02
529             	3.12421513e+02
530             	3.12422337e+02
531             	3.12423153e+02
532             	3.12423950e+02
533             	3.12424683e+02
534             	3.12425354e+02
535             	3.12425957e+02
536             	3.12426490e+02
537             	3.12426960e+02
538             	3.12427375e+02
539             	3.12427749e+02
540             	3.12428111e+02
541             	3.12428464e+02
542             	3.12428810e+02
543             	3.12429155e+02
544             	3.12429469e+02
545             	3.12429743e+02
546             	3.12430014e+02
547             	3.12430282e+02
548             	3.12430537e+02
549             	3.12430766e+02
550             	3.12430955e+02
551             	3.12431100e+02
552             	3.12431214e+02
553             	3.12431318e+02
554             	3.12431432e+02
555             	3.12431559e+02
556             	3.12431699e+02
557             	3.12431850e+02
558             	3.12431919e+02
559             	3.12432002e+02
560             	3.12432088e+02
561             	3.12432210e+02
562             	3.12432356e+02
563             	3.12432550e+02
564             	3.12432786e+02
565             	3.12433087e+02
566             	3.12433428e+02
567             	3.12433818e+02
568             	3.12434225e+02
569             	3.12434656e+02
570             	3.12435129e+02
571             	3.12435654e+02
572             	3.12436245e+02
573             	3.12436906e+02
574             	3.12437634e+02
575             	3.12438411e+02
576             	3.12439228e+02
577             	3.12440073e+02
578             	3.12440945e+02
579             	3.12441844e+02
580             	3.12442751e+02
581             	3.12443647e+02
582             	3.12444520e+02
583             	3.12445351e+02
584             	3.12446136e+02
585             	3.12446876e+02
586             	3.12447563e+02
587             	3.12448199e+02
588             	3.12448789e+02
589             	3.12449339e+02
590             	3.12449858e+02
591             	3.12450371e+02
592             	3.12450869e+02
593             	3.12451347e+02
594             	3.12451800e+02
595             	3.12452136e+02
596             	3.12452413e+02
597             	3.12452589e+02
598             	3.12452695e+02
599             	3.12452732e+02
600             	3.12452784e+02
601             	3.12452857e+02
602             	3.12453005e+02
603             	3.12453228e+02
604             	3.12453491e+02
605             	3.12453748e+02
606             	3.12453962e+02
607             	3.12454140e+02
608             	3.12454312e+02
609             	3.12454484e+02
610             	3.12454668e+02
611             	3.12454882e+02
612             	3.12455139e+02
613             	3.12455459e+02
614             	3.12455847e+02
615             	3.12456239e+02
616             	3.12456610e+02
617             	3.12456992e+02
618             	3.12457396e+02
619             	3.12457799e+02
620             	3.12458252e+02
621             	3.12458733e+02
622             	3.12459261e+02
623             	3.12459858e+02
624             	3.12460528e+02
625             	3.12461264e+02
626             	3.12462042e+02
627             	3.12462827e+02
628             	3.12463590e+02
629             	3.12464297e+02
630             	3.12464956e+02
631             	3.12465555e+02
632             	3.12466113e+02
633             	3.12466646e+02
634             	3.12467192e+02
635             	3.12467718e+02
636             	3.12468279e+02
637             	3.12468872e+02
638             	3.12469489e+02
639             	3.12470098e+02
640             	3.12470710e+02
641             	3.12471279e+02
642             	3.12471806e+02
643             	3.12472255e+02
644             	3.12472591e+02
645             	3.12472804e+02
646             	3.12472900e+02
647             	3.12472878e+02
648             	3.12472748e+02
649             	3.12472530e+02
650             	3.12472249e+02
651             	3.12472013e+02
652             	3.12471789e+02
653             	3.12471617e+02
654             	3.12471518e+02
655             	3.12471461e+02
656             	3.12471439e+02
657             	3.12471434e+02
658             	3.12471419e+02
659             	3.12471377e+02
660             	3.12471314e+02
661             	3.12471237e+02
662             	3.12471162e+02
663             	3.12471095e+02
664             	3.12471011e+02
665             	3.12470940e+02
666             	3.12470894e+02
667             	3.12470879e+02
668             	3.12470903e+02
669             	3.12470961e+02
670             	3.12471038e+02
671             	3.12471156e+02
672             	3.12471304e+02
673             	3.12471411e+02
674             	3.12471520e+02
675             	3.12471609e+02
676             	3.12471699e+02
677             	3.12471806e+02
678             	3.12471932e+02
679             	3.12472109e+02
680             	3.12472346e+02
681             	3.12472576e+02
682             	3.12472824e+02
683             	3.12473079e+02
684             	3.12473346e+02
685             	3.12473644e+02
686             	3.12473982e+02
687             	3.12474364e+02
688             	3.12474789e+02
689             	3.12475259e+02
690             	3.12475783e+02
691             	3.12476254e+02
692             	3.12476658e+02
693             	3.12476936e+02
694             	3.12477097e+02
695             	3.12477162e+02
696             	3.12477154e+02
697             	3.12477246e+02
698             	3.12477300e+02
699             	3.12477492e+02
700             	3.12477842e+02
701             	3.12478284e+02
702             	3.12478716e+02
703             	3.12479057e+02
704             	3.12479286e+02
705             	3.12479426e+02
706             	3.12479451e+02
707             	3.12479292e+02
708             	3.12479025e+02
709             	3.12478768e+02
710             	3.12478499e+02
711             	3.12478086e+02
712             	3.12477502e+02
713             	3.12476976e+02
714             	3.12476392e+02
715             	3.12475980e+02
716             	3.12475771e+02
717             	3.12475725e+02
718             	3.12475839e+02
719             	3.12475945e+02
720             	3.12476070e+02
721             	3.12476070e+02
722             	3.12476001e+02
723             	3.12475920e+02
724             	3.12475853e+02
725             	3.12475832e+02
726             	3.12475789e+02
727             	3.12475658e+02
728             	3.12475588e+02
729             	3.12475645e+02
730             	3.12475857e+02
731             	3.12476226e+02
732             	3.12476778e+02
733             	3.12477458e+02
734             	3.12478192e+02
735             	3.12478892e+02
736             	3.12479521e+02
737             	3.12480020e+02
738             	3.12480375e+02
739             	3.12480615e+02
740             	3.12480790e+02
741             	3.12480874e+02
742             	3.12480996e+02
743             	3.12481110e+02
744             	3.12481204e+02
745             	3.12481307e+02
746             	3.12481433e+02
747             	3.12481562e+02
748             	3.12481788e+02
749             	3.12481952e+02
750             	3.12482022e+02
751             	3.12481980e+02
752             	3.12481821e+02
753             	3.12481582e+02
754             	3.12481300e+02
755             	3.12480995e+02
756             	3.12480677e+02
757             	3.12480350e+02
758             	3.12480010e+02
759             	3.12479714e+02
760             	3.12479379e+02
761             	3.12479050e+02
762             	3.12478728e+02
763             	3.12478402e+02
764             	3.12478063e+02
765             	3.12477741e+02
766             	3.12477409e+02
767             	3.12477070e+02
768             	3.12476741e+02
769             	3.12476417e+02
770             	3.12476095e+02
771             	3.12475747e+02
772             	3.12475368e+02
773             	3.12474969e+02
774             	3.12474576e+02
775             	3.12474188e+02
776             	3.12473811e+02
777             	3.12473463e+02
778             	3.12473121e+02
779             	3.12472790e+02
780             	3.12472454e+02
781             	3.12472147e+02
782             	3.12471862e+02
783             	3.12471623e+02
784             	3.12471424e+02
785             	3.12471267e+02
786             	3.12471134e+02
787             	3.12471017e+02
788             	3.12470942e+02
789             	3.12470927e+02
790             	3.12470973e+02
791             	3.12471106e+02
792             	3.12471351e+02
793             	3.12471713e+02
794             	3.12472177e+02
795             	3.12472708e+02
796             	3.12473296e+02
797             	3.12473918e+02
798             	3.12474535e+02
799             	3.12475130e+02
800             	3.12475731e+02
801             	3.12476332e+02
802             	3.12476927e+02
803             	3.12477532e+02
804             	3.12478117e+02
805             	3.12478693e+02
806             	3.12479258e+02
807             	3.12479903e+02
808             	3.12480527e+02
809             	3.12481265e+02
810             	3.12482043e+02
811             	3.12482735e+02
812             	3.12483338e+02
813             	3.12483766e+02
814             	3.12484020e+02
815             	3.12484127e+02
816             	3.12484093e+02
817             	3.12483889e+02
818             	3.12483616e+02
819             	3.12483337e+02
820             	3.12483031e+02
821             	3.12482757e+02
822             	3.12482509e+02
823             	3.12482283e+02
824             	3.12482074e+02
825             	3.12481869e+02
826             	3.12481606e+02
827             	3.12481259e+02
828             	3.12480837e+02
829             	3.12480317e+02
830             	3.12479755e+02
831             	3.12479405e+02
832             	3.12479110e+02
833             	3.12479081e+02
834             	3.12479299e+02
835             	3.12479757e+02
836             	3.12480253e+02
837             	3.12480826e+02
838             	3.12481428e+02
839             	3.12482035e+02
840             	3.12482647e+02
841             	3.12483260e+02
842             	3.12483883e+02
843             	3.12484490e+02
844             	3.12485024e+02
845             	3.12485454e+02
846             	3.12485771e+02
847             	3.12486000e+02
848             	3.12486150e+02
849             	3.12486349e+02
850             	3.12486565e+02
851             	3.12486967e+02
852             	3.12487491e+02
853             	3.12487979e+02
854             	3.12488480e+02
855             	3.12488949e+02
856             	3.12489390e+02
857             	3.12489769e+02
858             	3.12490074e+02
859             	3.12490304e+02
860             	3.12490469e+02
861             	3.12490458e+02
862             	3.12490243e+02
863             	3.12489774e+02
864             	3.12489257e+02
865             	3.12488997e+02
866             	3.12488920e+02
867             	3.12489344e+02
868             	3.12490263e+02
869             	3.12491334e+02
870             	3.12492390e+02
871             	3.12493250e+02
872             	3.12493761e+02
873             	3.12493897e+02
874             	3.12493682e+02
875             	3.12493150e+02
876             	3.12492349e+02
877             	3.12491564e+02
878             	3.12490816e+02
879             	3.12490079e+02
880             	3.12489709e+02
881             	3.12489617e+02
882             	3.12489659e+02
883             	3.12489638e+02
884             	3.12489527e+02
885             	3.12489268e+02
886             	3.12488925e+02
887             	3.12488545e+02
888             	3.12488180e+02
889             	3.12487882e+02
890             	3.12487687e+02
891             	3.12487667e+02
892             	3.12487896e+02
893             	3.12488040e+02
894             	3.12488109e+02
895             	3.12488170e+02
896             	3.12488174e+02
897             	3.12488258e+02
898             	3.12488479e+02
899             	3.12488818e+02
900             	3.12489256e+02
901             	3.12489783e+02
902             	3.12490348e+02
903             	3.12490903e+02
904             	3.12491429e+02
905             	3.12491888e+02
906             	3.12492263e+02
907             	3.12492585e+02
908             	3.12492888e+02
909             	3.12493116e+02
910             	3.12493127e+02
911             	3.12492925e+02
912             	3.12492564e+02
913             	3.12492112e+02
914             	3.12491614e+02
915             	3.12491092e+02
916             	3.12490593e+02
917             	3.12490101e+02
918             	3.12489670e+02
919             	3.12489301e+02
920             	3.12488945e+02
921             	3.12488588e+02
922             	3.12488214e+02
923             	3.12487821e+02
924             	3.12487429e+02
925             	3.12487044e+02
926             	3.12486654e+02
927             	3.12486279e+02
928             	3.12485854e+02
929             	3.12485369e+02
930             	3.12484801e+02
931             	3.12484154e+02
932             	3.12483415e+02
933             	3.12482642e+02