# Region        : cellZone pcb
# Cells         : 645
# Volume        : 1.24510152e+00
# Time          	volAverage(T)
1               	3.00017435e+02
2               	3.00050731e+02
3               	3.00096900e+02
4               	3.00154985e+02
5               	3.00222749e+02
6               	3.00300089e+02
7               	3.00386502e+02
8               	3.00481652e+02
9               	3.00584835e+02
10              	3.00695767e+02
11              	3.00814500e+02
12              	3.00940386e+02
13              	3.01073207e+02
14              	3.01208964e+02
15              	3.01349498e+02
16              	3.01494031e+02
17              	3.01642495e+02
18              	3.01793909e+02
19              	3.01949046e+02
20              	3.02109092e+02
21              	3.02271376e+02
22              	3.02436825e+02
23              	3.02606412e+02
24              	3.02778636e+02
25              	3.02953649e+02
26              	3.03129218e+02
27              	3.03308752e+02
28              	3.03490661e+02
29              	3.03674390e+02
30              	3.03860750e+02
31              	3.04049787e+02
32              	3.04239429e+02
33              	3.04429960e+02
34              	3.04620456e+02
35              	3.04811806e+02
36              	3.05004943e+02
37              	3.05198065e+02
38              	3.05389362e+02
39              	3.05579099e+02
40              	3.05766606e+02
41              	3.05955449e+02
42              	3.06142541e+02
43              	3.06328246e+02
44              	3.06513525e+02
45              	3.06700369e+02
46              	3.06886818e+02
47              	3.07075404e+02
48              	3.07263017e+02
49              	3.07454422e+02
50              	3.07639652e+02
51              	3.07824005e+02
52              	3.08007739e+02
53              	3.08191248e+02
54              	3.08374629e+02
55              	3.08557640e+02
56              	3.08740943e+02
57              	3.08924381e+02
58              	3.09107832e+02
59              	3.09291861e+02
60              	3.09474849e+02
61              	3.09656224e+02
62              	3.09836426e+02
63              	3.10013792e+02
64              	3.10188371e+02
65              	3.10362342e+02
66              	3.10535176e+02
67              	3.10704417e+02
68              	3.10877163e+02
69              	3.11047066e+02
70              	3.11211182e+02
71              	3.11374474e+02
72              	3.11535789e+02
73              	3.11697200e+02
74              	3.11859104e+02
75              	3.12021258e+02
76              	3.12181085e+02
77              	3.12341616e+02
78              	3.12501876e+02
79              	3.12660799e+02
80              	3.12817901e+02
81              	3.12972812e+02
82              	3.13126918e+02
83              	3.13277970e+02
84              	3.13424883e+02
85              	3.13567665e+02
86              	3.13710029e+02
87              	3.13853700e+02
88              	3.13995507e+02
89              	3.14136727e+02
90              	3.14277348e+02
91              	3.14418317e+02
92              	3.14558439e+02
93              	3.14698982e+02
94              	3.14839545e+02
95              	3.14981809e+02
96              	3.15123872e+02
97              	3.15263841e+02
98              	3.15402384e+02
99              	3.15539324e+02
100             	3.15673135e+02
101             	3.15805320e+02
102             	3.15936013e+02
103             	3.16066170e+02
104             	3.16195313e+02
105             	3.16322139e+02
106             	3.16447615e+02
107             	3.16571799e+02
108             	3.16693738e+02
109             	3.16811522e+02
110             	3.16927895e+02
111             	3.17042504e+02
112             	3.17157132e+02
113             	3.17268979e+02
114             	3.17378506e+02
115             	3.17488587e+02
116             	3.17599127e+02
117             	3.17709314e+02
118             	3.17818569e+02
119             	3.17927251e+02
120             	3.18035810e+02
121             	3.18142858e+02
122             	3.18247805e+02
123             	3.18353610e+02
124             	3.18458332e+02
125             	3.18563960e+02
126             	3.18668402e+02
127             	3.18771149e+02
128             	3.18873737e+02
129             	3.18974466e+02
130             	3.19073174e+02
131             	3.19168407e+02
132             	3.19262097e+02
133             	3.19355220e+02
134             	3.19447334e+02
135             	3.19539654e+02
136             	3.19632542e+02
137             	3.19725847e+02
138             	3.19819340e+02
139             	3.19912072e+02
140             	3.20002117e+02
141             	3.20090657e+02
142             	3.20178214e+02
143             	3.20264397e+02
144             	3.20350764e+02
145             	3.20436076e+02
146             	3.20521203e+02
147             	3.20605748e+02
148             	3.20684460e+02
149             	3.20762324e+02
150             	3.20839524e+02
151             	3.20915323e+02
152             	3.20990867e+02
153             	3.21064957e+02
154             	3.21139475e+02
155             	3.21214421e+02
156             	3.21289712e+02
157             	3.21362889e+02
158             	3.21435655e+02
159             	3.21507711e+02
160             	3.21580017e+02
161             	3.21650715e+02
162             	3.21719893e+02
163             	3.21789672e+02
164             	3.21858362e+02
165             	3.21927498e+02
166             	3.21997043e+02
167             	3.22065923e+02
168             	3.22133707e+02
169             	3.22199659e+02
170             	3.22262920e+02
171             	3.22325592e+02
172             	3.22385956e+02
173             	3.22445766e+02
174             	3.22505070e+02
175             	3.22564394e+02
176             	3.22622272e+02
177             	3.22679849e+02
178             	3.22736612e+02
179             	3.22793272e+02
180             	3.22849427e+02
181             	3.22903820e+02
182             	3.22957898e+02
183             	3.23011282e+02
184             	3.23065348e+02
185             	3.23119768e+02
186             	3.23172902e+02
187             	3.23226132e+02
188             	3.23278381e+02
189             	3.23331097e+02
190             	3.23382645e+02
191             	3.23434540e+02
192             	3.23485521e+02
193             	3.23536216e+02
194             	3.23585943e+02
195             	3.23635992e+02
196             	3.23684349e+02
197             	3.23732944e+02
198             	3.23779990e+02
199             	3.23827166e+02
200             	3.23873094e+02
201             	3.23918755e+02
202             	3.23962626e+02
203             	3.24005969e+02
204             	3.24047866e+02
205             	3.24090217e+02
206             	3.24131360e+02
207             	3.24172761e+02
208             	3.24213178e+02
209             	3.24253734e+02
210             	3.24292973e+02
211             	3.24332782e+02
212             	3.24371523e+02
213             	3.24410757e+02
214             	3.24449536e+02
215             	3.24489356e+02
216             	3.24528453e+02
217             	3.24568368e+02
218             	3.24607026e+02
219             	3.24645336e+02
220             	3.24682384e+02
221             	3.24719075e+02
222             	3.24754096e+02
223             	3.24789319e+02
224             	3.24823683e+02
225             	3.24858246e+02
226             	3.24891897e+02
227             	3.24925638e+02
228             	3.24958348e+02
229             	3.24991553e+02
230             	3.25023356e+02
231             	3.25055273e+02
232             	3.25085964e+02
233             	3.25117249e+02
234             	3.25147568e+02
235             	3.25178173e+02
236             	3.25207894e+02
237             	3.25237980e+02
238             	3.25266885e+02
239             	3.25296377e+02
240             	3.25325179e+02
241             	3.25354775e+02
242             	3.25383508e+02
243             	3.25412597e+02
244             	3.25440361e+02
245             	3.25468518e+02
246             	3.25495583e+02
247             	3.25523081e+02
248             	3.25549481e+02
249             	3.25576164e+02
250             	3.25601208e+02
251             	3.25626625e+02
252             	3.25650775e+02
253             	3.25675355e+02
254             	3.25698928e+02
255             	3.25723039e+02
256             	3.25745882e+02
257             	3.25769234e+02
258             	3.25791720e+02
259             	3.25815110e+02
260             	3.25837275e+02
261             	3.25859615e+02
262             	3.25880871e+02
263             	3.25902705e+02
264             	3.25923578e+02
265             	3.25944983e+02
266             	3.25965269e+02
267             	3.25986250e+02
268             	3.26006182e+02
269             	3.26026656e+02
270             	3.26046229e+02
271             	3.26066615e+02
272             	3.26086181e+02
273             	3.26106430e+02
274             	3.26125680e+02
275             	3.26145474e+02
276             	3.26164270e+02
277             	3.26183982e+02
278             	3.26202551e+02
279             	3.26221575e+02
280             	3.26239559e+02
281             	3.26258136e+02
282             	3.26275380e+02
283             	3.26293356e+02
284             	3.26310429e+02
285             	3.26328001e+02
286             	3.26344488e+02
287             	3.26361470e+02
288             	3.26377399e+02
289             	3.26393850e+02
290             	3.26409327e+02
291             	3.26425504e+02
292             	3.26440685e+02
293             	3.26456505e+02
294             	3.26471413e+02
295             	3.26486818e+02
296             	3.26501054e+02
297             	3.26515902e+02
298             	3.26529632e+02
299             	3.26543876e+02
300             	3.26557079e+02
301             	3.26570997e+02
302             	3.26584062e+02
303             	3.26597894e+02
304             	3.26610933e+02
305             	3.26624705e+02
306             	3.26637432e+02
307             	3.26650747e+02
308             	3.26662996e+02
309             	3.26675881e+02
310             	3.26687692e+02
311             	3.26700196e+02
312             	3.26711876e+02
313             	3.26724413e+02
314             	3.26735970e+02
315             	3.26748138e+02
316             	3.26759432e+02
317             	3.26771487e+02
318             	3.26782503e+02
319             	3.26794201e+02
320             	3.26804912e+02
321             	3.26816297e+02
322             	3.26826838e+02
323             	3.26838054e+02
324             	3.26848289e+02
325             	3.26859238e+02
326             	3.26869295e+02
327             	3.26880153e+02
328             	3.26890028e+02
329             	3.26900537e+02
330             	3.26910072e+02
331             	3.26920339e+02
332             	3.26929621e+02
333             	3.26939647e+02
334             	3.26948681e+02
335             	3.26958447e+02
336             	3.26967252e+02
337             	3.26976735e+02
338             	3.26985202e+02
339             	3.26994395e+02
340             	3.27002618e+02
341             	3.27011544e+02
342             	3.27019528e+02
343             	3.27028307e+02
344             	3.27036181e+02
345             	3.27044781e+02
346             	3.27052383e+02
347             	3.27060746e+02
348             	3.27068152e+02
349             	3.27076319e+02
350             	3.27083533e+02
351             	3.27091498e+02
352             	3.27098507e+02
353             	3.27106247e+02
354             	3.27113049e+02
355             	3.27120639e+02
356             	3.27127317e+02
357             	3.27134782e+02
358             	3.27141328e+02
359             	3.27148670e+02
360             	3.27155092e+02
361             	3.27162295e+02
362             	3.27168567e+02
363             	3.27175636e+02
364             	3.27181764e+02
365             	3.27188669e+02
366             	3.27194662e+02
367             	3.27201445e+02
368             	3.27207270e+02
369             	3.27213905e+02
370             	3.27219604e+02
371             	3.27226061e+02
372             	3.27231572e+02
373             	3.27237867e+02
374             	3.27243237e+02
375             	3.27249395e+02
376             	3.27254588e+02
377             	3.27260605e+02
378             	3.27265701e+02
379             	3.27271569e+02
380             	3.27276504e+02
381             	3.27282208e+02
382             	3.27287002e+02
383             	3.27292568e+02
384             	3.27297219e+02
385             	3.27302668e+02
386             	3.27307193e+02
387             	3.27312484e+02
388             	3.27316851e+02
389             	3.27322006e+02
390             	3.27326267e+02
391             	3.27331336e+02
392             	3.27335514e+02
393             	3.27340497e+02
394             	3.27344587e+02
395             	3.27349485e+02
396             	3.27353500e+02
397             	3.27358322e+02
398             	3.27362245e+02
399             	3.27366969e+02
400             	3.27370801e+02
401             	3.27375430e+02
402             	3.27379147e+02
403             	3.27383664e+02
404             	3.27387289e+02
405             	3.27391714e+02
406             	3.27395239e+02
407             	3.27399546e+02
408             	3.27402948e+02
409             	3.27407136e+02
410             	3.27410422e+02
411             	3.27414490e+02
412             	3.27417661e+02
413             	3.27421625e+02
414             	3.27424699e+02
415             	3.27428570e+02
416             	3.27431564e+02
417             	3.27435369e+02
418             	3.27438297e+02
419             	3.27442025e+02
420             	3.27444871e+02
421             	3.27448526e+02
422             	3.27451295e+02
423             	3.27454867e+02
424             	3.27457569e+02
425             	3.27461078e+02
426             	3.27463724e+02
427             	3.27467194e+02
428             	3.27469789e+02
429             	3.27473209e+02
430             	3.27475744e+02
431             	3.27479093e+02
432             	3.27481565e+02
433             	3.27484848e+02
434             	3.27487236e+02
435             	3.27490435e+02
436             	3.27492754e+02
437             	3.27495904e+02
438             	3.27498153e+02
439             	3.27501193e+02
440             	3.27503357e+02
441             	3.27506305e+02
442             	3.27508383e+02
443             	3.27511281e+02
444             	3.27513306e+02
445             	3.27516157e+02
446             	3.27518132e+02
447             	3.27520925e+02
448             	3.27522834e+02
449             	3.27525569e+02
450             	3.27527433e+02
451             	3.27530130e+02
452             	3.27531948e+02
453             	3.27534587e+02
454             	3.27536356e+02
455             	3.27538956e+02
456             	3.27540693e+02
457             	3.27543239e+02
458             	3.27544921e+02
459             	3.27547408e+02
460             	3.27549040e+02
461             	3.27551501e+02
462             	3.27553093e+02
463             	3.27555505e+02
464             	3.27557040e+02
465             	3.27559398e+02
466             	3.27560875e+02
467             	3.27563175e+02
468             	3.27564598e+02
469             	3.27566830e+02
470             	3.27568204e+02
471             	3.27570392e+02
472             	3.27571723e+02
473             	3.27573869e+02
474             	3.27575155e+02
475             	3.27577260e+02
476             	3.27578510e+02
477             	3.27580581e+02
478             	3.27581788e+02
479             	3.27583817e+02
480             	3.27584987e+02
481             	3.27586997e+02
482             	3.27588147e+02
483             	3.27590132e+02
484             	3.27591244e+02
485             	3.27593188e+02
486             	3.27594268e+02
487             	3.27596185e+02
488             	3.27597227e+02
489             	3.27599104e+02
490             	3.27600110e+02
491             	3.27601956e+02
492             	3.27602931e+02
493             	3.27604739e+02
494             	3.27605679e+02
495             	3.27607453e+02
496             	3.27608359e+02
497             	3.27610104e+02
498             	3.27610971e+02
499             	3.27612671e+02
500             	3.27613502e+02
501             	3.27615172e+02
502             	3.27615972e+02
503             	3.27617611e+02
504             	3.27618377e+02
505             	3.27619984e+02
506             	3.27620720e+02
507             	3.27622299e+02
508             	3.27623011e+02
509             	3.27624568e+02
510             	3.27625260e+02
511             	3.27626796e+02
512             	3.27627462e+02
513             	3.27628974e+02
514             	3.27629617e+02
515             	3.27631107e+02
516             	3.27631730e+02
517             	3.27633200e+02
518             	3.27633802e+02
519             	3.27635251e+02
520             	3.27635826e+02
521             	3.27637244e+02
522             	3.27637794e+02
523             	3.27639194e+02
524             	3.27639721e+02
525             	3.27641097e+02
526             	3.27641602e+02
527             	3.27642954e+02
528             	3.27643433e+02
529             	3.27644763e+02
530             	3.27645220e+02
531             	3.27646527e+02
532             	3.27646961e+02
533             	3.27648243e+02
534             	3.27648651e+02
535             	3.27649910e+02
536             	3.27650294e+02
537             	3.27651532e+02
538             	3.27651901e+02
539             	3.27653123e+02
540             	3.27653475e+02
541             	3.27654686e+02
542             	3.27655023e+02
543             	3.27656216e+02
544             	3.27656533e+02
545             	3.27657707e+02
546             	3.27658007e+02
547             	3.27659167e+02
548             	3.27659453e+02
549             	3.27660597e+02
550             	3.27660865e+02
551             	3.27661992e+02
552             	3.27662245e+02
553             	3.27663354e+02
554             	3.27663587e+02
555             	3.27664681e+02
556             	3.27664902e+02
557             	3.27665981e+02
558             	3.27666184e+02
559             	3.27667247e+02
560             	3.27667436e+02
561             	3.27668485e+02
562             	3.27668657e+02
563             	3.27669689e+02
564             	3.27669843e+02
565             	3.27670859e+02
566             	3.27670999e+02
567             	3.27672000e+02
568             	3.27672125e+02
569             	3.27673113e+02
570             	3.27673223e+02
571             	3.27674197e+02
572             	3.27674296e+02
573             	3.27675258e+02
574             	3.27675343e+02
575             	3.27676293e+02
576             	3.27676367e+02
577             	3.27677305e+02
578             	3.27677367e+02
579             	3.27678294e+02
580             	3.27678344e+02
581             	3.27679259e+02
582             	3.27679297e+02
583             	3.27680201e+02
584             	3.27680229e+02
585             	3.27681122e+02
586             	3.27681139e+02
587             	3.27682022e+02
588             	3.27682028e+02
589             	3.27682901e+02
590             	3.27682897e+02
591             	3.27683760e+02
592             	3.27683745e+02
593             	3.27684598e+02
594             	3.27684574e+02
595             	3.27685418e+02
596             	3.27685384e+02
597             	3.27686218e+02
598             	3.27686174e+02
599             	3.27686999e+02
600             	3.27686944e+02
601             	3.27687759e+02
602             	3.27687696e+02
603             	3.27688502e+02
604             	3.27688430e+02
605             	3.27689228e+02
606             	3.27689147e+02
607             	3.27689941e+02
608             	3.27689847e+02
609             	3.27690626e+02
610             	3.27690523e+02
611             	3.27691294e+02
612             	3.27691183e+02
613             	3.27691949e+02
614             	3.27691828e+02
615             	3.27692584e+02
616             	3.27692454e+02
617             	3.27693200e+02
618             	3.27693060e+02
619             	3.27693799e+02
620             	3.27693652e+02
621             	3.27694383e+02
622             	3.27694228e+02
623             	3.27694950e+02
624             	3.27694786e+02
625             	3.27695501e+02
626             	3.27695330e+02
627             	3.27696037e+02
628             	3.27695859e+02
629             	3.27696559e+02
630             	3.27696375e+02
631             	3.27697069e+02
632             	3.27696877e+02
633             	3.27697564e+02
634             	3.27697368e+02
635             	3.27698049e+02
636             	3.27697846e+02
637             	3.27698522e+02
638             	3.27698313e+02
639             	3.27698982e+02
640             	3.27698768e+02
641             	3.27699432e+02
642             	3.27699214e+02
643             	3.27699872e+02
644             	3.27699648e+02
645             	3.27700302e+02
646             	3.27700074e+02
647             	3.27700722e+02
648             	3.27700488e+02
649             	3.27701131e+02
650             	3.27700891e+02
651             	3.27701529e+02
652             	3.27701284e+02
653             	3.27701916e+02
654             	3.27701666e+02
655             	3.27702292e+02
656             	3.27702036e+02
657             	3.27702657e+02
658             	3.27702395e+02
659             	3.27703011e+02
660             	3.27702745e+02
661             	3.27703356e+02
662             	3.27703086e+02
663             	3.27703693e+02
664             	3.27703418e+02
665             	3.27704021e+02
666             	3.27703744e+02
667             	3.27704343e+02
668             	3.27704062e+02
669             	3.27704659e+02
670             	3.27704375e+02
671             	3.27704968e+02
672             	3.27704681e+02
673             	3.27705272e+02
674             	3.27704982e+02
675             	3.27705570e+02
676             	3.27705277e+02
677             	3.27705862e+02
678             	3.27705566e+02
679             	3.27706147e+02
680             	3.27705848e+02
681             	3.27706426e+02
682             	3.27706124e+02
683             	3.27706698e+02
684             	3.27706392e+02
685             	3.27706962e+02
686             	3.27706651e+02
687             	3.27707217e+02
688             	3.27706903e+02
689             	3.27707466e+02
690             	3.27707148e+02
691             	3.27707707e+02
692             	3.27707386e+02
693             	3.27707942e+02
694             	3.27707617e+02
695             	3.27708170e+02
696             	3.27707843e+02
697             	3.27708392e+02
698             	3.27708062e+02
699             	3.27708609e+02
700             	3.27708277e+02
701             	3.27708822e+02
702             	3.27708488e+02
703             	3.27709030e+02
704             	3.27708694e+02
705             	3.27709235e+02
706             	3.27708898e+02
707             	3.27709437e+02
708             	3.27709099e+02
709             	3.27709637e+02
710             	3.27709297e+02
711             	3.27709833e+02
712             	3.27709491e+02
713             	3.27710024e+02
714             	3.27709680e+02
715             	3.27710212e+02
716             	3.27709865e+02
717             	3.27710395e+02
718             	3.27710045e+02
719             	3.27710572e+02
720             	3.27710220e+02
721             	3.27710744e+02
722             	3.27710390e+02
723             	3.27710911e+02
724             	3.27710553e+02
725             	3.27711072e+02
726             	3.27710711e+02
727             	3.27711227e+02
728             	3.27710865e+02
729             	3.27711380e+02
730             	3.27711016e+02
731             	3.27711528e+02
732             	3.27711162e+02
733             	3.27711673e+02
734             	3.27711306e+02
735             	3.27711816e+02
736             	3.27711449e+02
737             	3.27711958e+02
738             	3.27711590e+02
739             	3.27712098e+02
740             	3.27711729e+02
741             	3.27712236e+02
742             	3.27711866e+02
743             	3.27712373e+02
744             	3.27712003e+02
745             	3.27712510e+02
746             	3.27712138e+02
747             	3.27712643e+02
748             	3.27712269e+02
749             	3.27712771e+02
750             	3.27712395e+02
751             	3.27712896e+02
752             	3.27712519e+02
753             	3.27713018e+02
754             	3.27712639e+02
755             	3.27713137e+02
756             	3.27712756e+02
757             	3.27713251e+02
758             	3.27712868e+02
759             	3.27713361e+02
760             	3.27712975e+02
761             	3.27713466e+02
762             	3.27713079e+02
763             	3.27713568e+02
764             	3.27713179e+02
765             	3.27713668e+02
766             	3.27713279e+02
767             	3.27713767e+02
768             	3.27713377e+02
769             	3.27713863e+02
770             	3.27713473e+02
771             	3.27713959e+02
772             	3.27713567e+02
773             	3.27714051e+02
774             	3.27713659e+02
775             	3.27714144e+02
776             	3.27713751e+02
777             	3.27714235e+02
778             	3.27713841e+02
779             	3.27714325e+02
780             	3.27713931e+02
781             	3.27714413e+02
782             	3.27714019e+02
783             	3.27714502e+02
784             	3.27714107e+02
785             	3.27714588e+02
786             	3.27714192e+02
787             	3.27714673e+02
788             	3.27714276e+02
789             	3.27714772e+02
790             	3.27714370e+02
791             	3.27714847e+02
792             	3.27714446e+02
793             	3.27714922e+02
794             	3.27714521e+02
795             	3.27714997e+02
796             	3.27714595e+02
797             	3.27715071e+02
798             	3.27714668e+02
799             	3.27715143e+02
800             	3.27714740e+02
801             	3.27715214e+02
802             	3.27714809e+02
803             	3.27715282e+02
804             	3.27714877e+02
805             	3.27715365e+02
806             	3.27714955e+02
807             	3.27715423e+02
808             	3.27715015e+02
809             	3.27715500e+02
810             	3.27715087e+02
811             	3.27715553e+02
812             	3.27715142e+02
813             	3.27715608e+02
814             	3.27715197e+02
815             	3.27715664e+02
816             	3.27715254e+02
817             	3.27715720e+02
818             	3.27715310e+02
819             	3.27715776e+02
820             	3.27715366e+02
821             	3.27715832e+02
822             	3.27715421e+02
823             	3.27715886e+02
824             	3.27715474e+02
825             	3.27715939e+02
826             	3.27715526e+02
827             	3.27715990e+02
828             	3.27715576e+02
829             	3.27716040e+02
830             	3.27715626e+02
831             	3.27716088e+02
832             	3.27715674e+02
833             	3.27716136e+02
834             	3.27715721e+02
835             	3.27716182e+02
836             	3.27715766e+02
837             	3.27716227e+02
838             	3.27715811e+02
839             	3.27716272e+02
840             	3.27715855e+02
841             	3.27716315e+02
842             	3.27715898e+02
843             	3.27716358e+02
844             	3.27715941e+02
845             	3.27716401e+02
846             	3.27715983e+02
847             	3.27716442e+02
848             	3.27716025e+02
849             	3.27716501e+02
850             	3.27716078e+02
851             	3.27716556e+02
852             	3.27716130e+02
853             	3.27716585e+02
854             	3.27716162e+02
855             	3.27716618e+02
856             	3.27716196e+02
857             	3.27716652e+02
858             	3.27716231e+02
859             	3.27716687e+02
860             	3.27716266e+02
861             	3.27716722e+02
862             	3.27716301e+02
863             	3.27716757e+02
864             	3.27716335e+02
865             	3.27716791e+02
866             	3.27716369e+02
867             	3.27716824e+02
868             	3.27716402e+02
869             	3.27716875e+02
870             	3.27716448e+02
871             	3.27716900e+02
872             	3.27716476e+02
873             	3.27716929e+02
874             	3.27716505e+02
875             	3.27716959e+02
876             	3.27716536e+02
877             	3.27716989e+02
878             	3.27716566e+02
879             	3.27717036e+02
880             	3.27716609e+02
881             	3.27717081e+02
882             	3.27716650e+02
883             	3.27717120e+02
884             	3.27716687e+02
885             	3.27717157e+02
886             	3.27716722e+02
887             	3.27717190e+02
888             	3.27716754e+02
889             	3.27717222e+02
890             	3.27716785e+02
891             	3.27717251e+02
892             	3.27716813e+02
893             	3.27717278e+02
894             	3.27716840e+02
895             	3.27717305e+02
896             	3.27716866e+02
897             	3.27717330e+02
898             	3.27716891e+02
899             	3.27717355e+02
900             	3.27716915e+02
901             	3.27717378e+02
902             	3.27716937e+02
903             	3.27717399e+02
904             	3.27716958e+02
905             	3.27717422e+02
906             	3.27716980e+02
907             	3.27717442e+02
908             	3.27717000e+02
909             	3.27717462e+02
910             	3.27717020e+02
911             	3.27717481e+02
912             	3.27717039e+02
913             	3.27717499e+02
914             	3.27717056e+02
915             	3.27717517e+02
916             	3.27717074e+02
917             	3.27717534e+02
918             	3.27717091e+02
919             	3.27717551e+02
920             	3.27717107e+02
921             	3.27717566e+02
922             	3.27717123e+02
923             	3.27717581e+02
924             	3.27717137e+02
925             	3.27717596e+02
926             	3.27717152e+02
927             	3.27717610e+02
928             	3.27717166e+02
929             	3.27717624e+02
930             	3.27717179e+02
931             	3.27717637e+02
932             	3.27717192e+02
933             	3.27717648e+02