# Region        : cellZone fluid
# Cells         : 2530
# Volume        : 2.68045873e+00
# Time          	volAverage(T)
1               	3.00000975e+02
2               	3.00001657e+02
3               	3.00006795e+02
4               	3.00015251e+02
5               	3.00023914e+02
6               	3.00034171e+02
7               	3.00044916e+02
8               	3.00056974e+02
9               	3.00069495e+02
10              	3.00083217e+02
11              	3.00098704e+02
12              	3.00115168e+02
13              	3.00132926e+02
14              	3.00149351e+02
15              	3.00165310e+02
16              	3.00179395e+02
17              	3.00200821e+02
18              	3.00226642e+02
19              	3.00246563e+02
20              	3.00266016e+02
21              	3.00285675e+02
22              	3.00301657e+02
23              	3.00321487e+02
24              	3.00343976e+02
25              	3.00366490e+02
26              	3.00387616e+02
27              	3.00408369e+02
28              	3.00427822e+02
29              	3.00446280e+02
30              	3.00463307e+02
31              	3.00478283e+02
32              	3.00493223e+02
33              	3.00509538e+02
34              	3.00520490e+02
35              	3.00536045e+02
36              	3.00549419e+02
37              	3.00563213e+02
38              	3.00578450e+02
39              	3.00593702e+02
40              	3.00607589e+02
41              	3.00621804e+02
42              	3.00640736e+02
43              	3.00661501e+02
44              	3.00680864e+02
45              	3.00702155e+02
46              	3.00719173e+02
47              	3.00734047e+02
48              	3.00746854e+02
49              	3.00758034e+02
50              	3.00771501e+02
51              	3.00780281e+02
52              	3.00795303e+02
53              	3.00805463e+02
54              	3.00813045e+02
55              	3.00820535e+02
56              	3.00839601e+02
57              	3.00863286e+02
58              	3.00883271e+02
59              	3.00898608e+02
60              	3.00913917e+02
61              	3.00927269e+02
62              	3.00936550e+02
63              	3.00946383e+02
64              	3.00956948e+02
65              	3.00965413e+02
66              	3.00973063e+02
67              	3.00979514e+02
68              	3.00988837e+02
69              	3.01000646e+02
70              	3.01007801e+02
71              	3.01017042e+02
72              	3.01035111e+02
73              	3.01050535e+02
74              	3.01066493e+02
75              	3.01075282e+02
76              	3.01083023e+02
77              	3.01091350e+02
78              	3.01101630e+02
79              	3.01106173e+02
80              	3.01111289e+02
81              	3.01118355e+02
82              	3.01124304e+02
83              	3.01130052e+02
84              	3.01137475e+02
85              	3.01141746e+02
86              	3.01144948e+02
87              	3.01149614e+02
88              	3.01161486e+02
89              	3.01177594e+02
90              	3.01188252e+02
91              	3.01195411e+02
92              	3.01201989e+02
93              	3.01209754e+02
94              	3.01211169e+02
95              	3.01211439e+02
96              	3.01210404e+02
97              	3.01214148e+02
98              	3.01212030e+02
99              	3.01209153e+02
100             	3.01207977e+02
101             	3.01205083e+02
102             	3.01203076e+02
103             	3.01210709e+02
104             	3.01217611e+02
105             	3.01222904e+02
106             	3.01227133e+02
107             	3.01231188e+02
108             	3.01233524e+02
109             	3.01233191e+02
110             	3.01231434e+02
111             	3.01231075e+02
112             	3.01231762e+02
113             	3.01228269e+02
114             	3.01225097e+02
115             	3.01221285e+02
116             	3.01218228e+02
117             	3.01227122e+02
118             	3.01234967e+02
119             	3.01238134e+02
120             	3.01242458e+02
121             	3.01246111e+02
122             	3.01248436e+02
123             	3.01249043e+02
124             	3.01250782e+02
125             	3.01247890e+02
126             	3.01246502e+02
127             	3.01241544e+02
128             	3.01239425e+02
129             	3.01235488e+02
130             	3.01230957e+02
131             	3.01229483e+02
132             	3.01228389e+02
133             	3.01225673e+02
134             	3.01232712e+02
135             	3.01237675e+02
136             	3.01241895e+02
137             	3.01244283e+02
138             	3.01246160e+02
139             	3.01247003e+02
140             	3.01245637e+02
141             	3.01241729e+02
142             	3.01242198e+02
143             	3.01240646e+02
144             	3.01238890e+02
145             	3.01236611e+02
146             	3.01234842e+02
147             	3.01232625e+02
148             	3.01227855e+02
149             	3.01231010e+02
150             	3.01236255e+02
151             	3.01237493e+02
152             	3.01243733e+02
153             	3.01252722e+02
154             	3.01257045e+02
155             	3.01263738e+02
156             	3.01264012e+02
157             	3.01264488e+02
158             	3.01264779e+02
159             	3.01267691e+02
160             	3.01263689e+02
161             	3.01265189e+02
162             	3.01261138e+02
163             	3.01258132e+02
164             	3.01253811e+02
165             	3.01250497e+02
166             	3.01249077e+02
167             	3.01247826e+02
168             	3.01245346e+02
169             	3.01246882e+02
170             	3.01248241e+02
171             	3.01252027e+02
172             	3.01258347e+02
173             	3.01264652e+02
174             	3.01267159e+02
175             	3.01271618e+02
176             	3.01271734e+02
177             	3.01272111e+02
178             	3.01274820e+02
179             	3.01272504e+02
180             	3.01269959e+02
181             	3.01269432e+02
182             	3.01266298e+02
183             	3.01265023e+02
184             	3.01262977e+02
185             	3.01261122e+02
186             	3.01259347e+02
187             	3.01258902e+02
188             	3.01261386e+02
189             	3.01262047e+02
190             	3.01263817e+02
191             	3.01265445e+02
192             	3.01266442e+02
193             	3.01265869e+02
194             	3.01267819e+02
195             	3.01268822e+02
196             	3.01271529e+02
197             	3.01272090e+02
198             	3.01272303e+02
199             	3.01271885e+02
200             	3.01270904e+02
201             	3.01270425e+02
202             	3.01270520e+02
203             	3.01269437e+02
204             	3.01269504e+02
205             	3.01269067e+02
206             	3.01269091e+02
207             	3.01268393e+02
208             	3.01267652e+02
209             	3.01266409e+02
210             	3.01266734e+02
211             	3.01265143e+02
212             	3.01262813e+02
213             	3.01261821e+02
214             	3.01260173e+02
215             	3.01261357e+02
216             	3.01258735e+02
217             	3.01257612e+02
218             	3.01257636e+02
219             	3.01257815e+02
220             	3.01257603e+02
221             	3.01258580e+02
222             	3.01260034e+02
223             	3.01263058e+02
224             	3.01263377e+02
225             	3.01261295e+02
226             	3.01261183e+02
227             	3.01260029e+02
228             	3.01259023e+02
229             	3.01257200e+02
230             	3.01255677e+02
231             	3.01254262e+02
232             	3.01253391e+02
233             	3.01252663e+02
234             	3.01251802e+02
235             	3.01250781e+02
236             	3.01249511e+02
237             	3.01245926e+02
238             	3.01246546e+02
239             	3.01244773e+02
240             	3.01242796e+02
241             	3.01241378e+02
242             	3.01240109e+02
243             	3.01240026e+02
244             	3.01238519e+02
245             	3.01237704e+02
246             	3.01238865e+02
247             	3.01241785e+02
248             	3.01243114e+02
249             	3.01243630e+02
250             	3.01245077e+02
251             	3.01246610e+02
252             	3.01247640e+02
253             	3.01247679e+02
254             	3.01245768e+02
255             	3.01245723e+02
256             	3.01243809e+02
257             	3.01242812e+02
258             	3.01241691e+02
259             	3.01240142e+02
260             	3.01239449e+02
261             	3.01238949e+02
262             	3.01239350e+02
263             	3.01239416e+02
264             	3.01239801e+02
265             	3.01240736e+02
266             	3.01240728e+02
267             	3.01241236e+02
268             	3.01241455e+02
269             	3.01241660e+02
270             	3.01241493e+02
271             	3.01240764e+02
272             	3.01240790e+02
273             	3.01241633e+02
274             	3.01241663e+02
275             	3.01241890e+02
276             	3.01243263e+02
277             	3.01244074e+02
278             	3.01244256e+02
279             	3.01244795e+02
280             	3.01245159e+02
281             	3.01245304e+02
282             	3.01244781e+02
283             	3.01243864e+02
284             	3.01242819e+02
285             	3.01243602e+02
286             	3.01243119e+02
287             	3.01243030e+02
288             	3.01243514e+02
289             	3.01243767e+02
290             	3.01243900e+02
291             	3.01243802e+02
292             	3.01243578e+02
293             	3.01243093e+02
294             	3.01242116e+02
295             	3.01240865e+02
296             	3.01239406e+02
297             	3.01238239e+02
298             	3.01237093e+02
299             	3.01235888e+02
300             	3.01235271e+02
301             	3.01235148e+02
302             	3.01235430e+02
303             	3.01235949e+02
304             	3.01236911e+02
305             	3.01236899e+02
306             	3.01237292e+02
307             	3.01237063e+02
308             	3.01236815e+02
309             	3.01236446e+02
310             	3.01236573e+02
311             	3.01236561e+02
312             	3.01236913e+02
313             	3.01237390e+02
314             	3.01238159e+02
315             	3.01238751e+02
316             	3.01238828e+02
317             	3.01238942e+02
318             	3.01238993e+02
319             	3.01238649e+02
320             	3.01238128e+02
321             	3.01237598e+02
322             	3.01237633e+02
323             	3.01237417e+02
324             	3.01237390e+02
325             	3.01237448e+02
326             	3.01237569e+02
327             	3.01237628e+02
328             	3.01237528e+02
329             	3.01237153e+02
330             	3.01236816e+02
331             	3.01236306e+02
332             	3.01235666e+02
333             	3.01235055e+02
334             	3.01234586e+02
335             	3.01234263e+02
336             	3.01234028e+02
337             	3.01233957e+02
338             	3.01233995e+02
339             	3.01234173e+02
340             	3.01234659e+02
341             	3.01234583e+02
342             	3.01234795e+02
343             	3.01234860e+02
344             	3.01234985e+02
345             	3.01234998e+02
346             	3.01234939e+02
347             	3.01234695e+02
348             	3.01234496e+02
349             	3.01234300e+02
350             	3.01234039e+02
351             	3.01233795e+02
352             	3.01233566e+02
353             	3.01233415e+02
354             	3.01233382e+02
355             	3.01233394e+02
356             	3.01233439e+02
357             	3.01233428e+02
358             	3.01233436e+02
359             	3.01233112e+02
360             	3.01233318e+02
361             	3.01233189e+02
362             	3.01233070e+02
363             	3.01232875e+02
364             	3.01232712e+02
365             	3.01232634e+02
366             	3.01232694e+02
367             	3.01232762e+02
368             	3.01232958e+02
369             	3.01233130e+02
370             	3.01233546e+02
371             	3.01233705e+02
372             	3.01233719e+02
373             	3.01233747e+02
374             	3.01233686e+02
375             	3.01233557e+02
376             	3.01233360e+02
377             	3.01232990e+02
378             	3.01233081e+02
379             	3.01233148e+02
380             	3.01233204e+02
381             	3.01233302e+02
382             	3.01233456e+02
383             	3.01233681e+02
384             	3.01233948e+02
385             	3.01234258e+02
386             	3.01234520e+02
387             	3.01235103e+02
388             	3.01235018e+02
389             	3.01234819e+02
390             	3.01234583e+02
391             	3.01234332e+02
392             	3.01234100e+02
393             	3.01233481e+02
394             	3.01233572e+02
395             	3.01233482e+02
396             	3.01233653e+02
397             	3.01233783e+02
398             	3.01234004e+02
399             	3.01234246e+02
400             	3.01234366e+02
401             	3.01234581e+02
402             	3.01234894e+02
403             	3.01235466e+02
404             	3.01235554e+02
405             	3.01235475e+02
406             	3.01235498e+02
407             	3.01235443e+02
408             	3.01235435e+02
409             	3.01235486e+02
410             	3.01235318e+02
411             	3.01234826e+02
412             	3.01234150e+02
413             	3.01233656e+02
414             	3.01233941e+02
415             	3.01233945e+02
416             	3.01234037e+02
417             	3.01234090e+02
418             	3.01235277e+02
419             	3.01235687e+02
420             	3.01236240e+02
421             	3.01235763e+02
422             	3.01235852e+02
423             	3.01235737e+02
424             	3.01235195e+02
425             	3.01234166e+02
426             	3.01233813e+02
427             	3.01233938e+02
428             	3.01233967e+02
429             	3.01233968e+02
430             	3.01234519e+02
431             	3.01236003e+02
432             	3.01237211e+02
433             	3.01237210e+02
434             	3.01236846e+02
435             	3.01236971e+02
436             	3.01236297e+02
437             	3.01235201e+02
438             	3.01234290e+02
439             	3.01233453e+02
440             	3.01233516e+02
441             	3.01232996e+02
442             	3.01233524e+02
443             	3.01235448e+02
444             	3.01236688e+02
445             	3.01238441e+02
446             	3.01238046e+02
447             	3.01238298e+02
448             	3.01238436e+02
449             	3.01237375e+02
450             	3.01236191e+02
451             	3.01236153e+02
452             	3.01235740e+02
453             	3.01235563e+02
454             	3.01235625e+02
455             	3.01235507e+02
456             	3.01237319e+02
457             	3.01239021e+02
458             	3.01237364e+02
459             	3.01237496e+02
460             	3.01237060e+02
461             	3.01237003e+02
462             	3.01236059e+02
463             	3.01235058e+02
464             	3.01235919e+02
465             	3.01235812e+02
466             	3.01235717e+02
467             	3.01235465e+02
468             	3.01235825e+02
469             	3.01236255e+02
470             	3.01236636e+02
471             	3.01237193e+02
472             	3.01236993e+02
473             	3.01237255e+02
474             	3.01237196e+02
475             	3.01237182e+02
476             	3.01236839e+02
477             	3.01235973e+02
478             	3.01236199e+02
479             	3.01235848e+02
480             	3.01235654e+02
481             	3.01235385e+02
482             	3.01235315e+02
483             	3.01235330e+02
484             	3.01235444e+02
485             	3.01235595e+02
486             	3.01236004e+02
487             	3.01235956e+02
488             	3.01236149e+02
489             	3.01236293e+02
490             	3.01236583e+02
491             	3.01236969e+02
492             	3.01236759e+02
493             	3.01236776e+02
494             	3.01236715e+02
495             	3.01236760e+02
496             	3.01236502e+02
497             	3.01236214e+02
498             	3.01235318e+02
499             	3.01235436e+02
500             	3.01235201e+02
501             	3.01235072e+02
502             	3.01234539e+02
503             	3.01234686e+02
504             	3.01234631e+02
505             	3.01234574e+02
506             	3.01234565e+02
507             	3.01234644e+02
508             	3.01234573e+02
509             	3.01234585e+02
510             	3.01234670e+02
511             	3.01235302e+02
512             	3.01235367e+02
513             	3.01235879e+02
514             	3.01235760e+02
515             	3.01235956e+02
516             	3.01235944e+02
517             	3.01235927e+02
518             	3.01235918e+02
519             	3.01235907e+02
520             	3.01235708e+02
521             	3.01235719e+02
522             	3.01235556e+02
523             	3.01235325e+02
524             	3.01235082e+02
525             	3.01234850e+02
526             	3.01234590e+02
527             	3.01233888e+02
528             	3.01234209e+02
529             	3.01234215e+02
530             	3.01234399e+02
531             	3.01234647e+02
532             	3.01234812e+02
533             	3.01235817e+02
534             	3.01236227e+02
535             	3.01236079e+02
536             	3.01236253e+02
537             	3.01236195e+02
538             	3.01236093e+02
539             	3.01235795e+02
540             	3.01235106e+02
541             	3.01234312e+02
542             	3.01234661e+02
543             	3.01234649e+02
544             	3.01234747e+02
545             	3.01234803e+02
546             	3.01234751e+02
547             	3.01235108e+02
548             	3.01235573e+02
549             	3.01236782e+02
550             	3.01237016e+02
551             	3.01237360e+02
552             	3.01237060e+02
553             	3.01237185e+02
554             	3.01237018e+02
555             	3.01236178e+02
556             	3.01236012e+02
557             	3.01234987e+02
558             	3.01235507e+02
559             	3.01235219e+02
560             	3.01235243e+02
561             	3.01235521e+02
562             	3.01235511e+02
563             	3.01237558e+02
564             	3.01237300e+02
565             	3.01237126e+02
566             	3.01237163e+02
567             	3.01237299e+02
568             	3.01237172e+02
569             	3.01237167e+02
570             	3.01236894e+02
571             	3.01236596e+02
572             	3.01235655e+02
573             	3.01235976e+02
574             	3.01235428e+02
575             	3.01235528e+02
576             	3.01235435e+02
577             	3.01235561e+02
578             	3.01235769e+02
579             	3.01235988e+02
580             	3.01236140e+02
581             	3.01236497e+02
582             	3.01238080e+02
583             	3.01237465e+02
584             	3.01237820e+02
585             	3.01237758e+02
586             	3.01237927e+02
587             	3.01237851e+02
588             	3.01237417e+02
589             	3.01236107e+02
590             	3.01236284e+02
591             	3.01235699e+02
592             	3.01235353e+02
593             	3.01234820e+02
594             	3.01234712e+02
595             	3.01234690e+02
596             	3.01234874e+02
597             	3.01235230e+02
598             	3.01237345e+02
599             	3.01236472e+02
600             	3.01236763e+02
601             	3.01236920e+02
602             	3.01237162e+02
603             	3.01237123e+02
604             	3.01236877e+02
605             	3.01236314e+02
606             	3.01235410e+02
607             	3.01235717e+02
608             	3.01235477e+02
609             	3.01235431e+02
610             	3.01235353e+02
611             	3.01235335e+02
612             	3.01234962e+02
613             	3.01235426e+02
614             	3.01235468e+02
615             	3.01237933e+02
616             	3.01237067e+02
617             	3.01237487e+02
618             	3.01237463e+02
619             	3.01237692e+02
620             	3.01237829e+02
621             	3.01237907e+02
622             	3.01237879e+02
623             	3.01237800e+02
624             	3.01237669e+02
625             	3.01237483e+02
626             	3.01237194e+02
627             	3.01236706e+02
628             	3.01235663e+02
629             	3.01235884e+02
630             	3.01235409e+02
631             	3.01235159e+02
632             	3.01234928e+02
633             	3.01234766e+02
634             	3.01234536e+02
635             	3.01234364e+02
636             	3.01234156e+02
637             	3.01234115e+02
638             	3.01233958e+02
639             	3.01234066e+02
640             	3.01234244e+02
641             	3.01234611e+02
642             	3.01235699e+02
643             	3.01235409e+02
644             	3.01235803e+02
645             	3.01235941e+02
646             	3.01236234e+02
647             	3.01236387e+02
648             	3.01236487e+02
649             	3.01236509e+02
650             	3.01236479e+02
651             	3.01236120e+02
652             	3.01235900e+02
653             	3.01235530e+02
654             	3.01235137e+02
655             	3.01234329e+02
656             	3.01235006e+02
657             	3.01235218e+02
658             	3.01235718e+02
659             	3.01236210e+02
660             	3.01236762e+02
661             	3.01237131e+02
662             	3.01238364e+02
663             	3.01238451e+02
664             	3.01237810e+02
665             	3.01237579e+02
666             	3.01237019e+02
667             	3.01236502e+02
668             	3.01235880e+02
669             	3.01235324e+02
670             	3.01233909e+02
671             	3.01234119e+02
672             	3.01233701e+02
673             	3.01233478e+02
674             	3.01233269e+02
675             	3.01233312e+02
676             	3.01233552e+02
677             	3.01233934e+02
678             	3.01234472e+02
679             	3.01234851e+02
680             	3.01235198e+02
681             	3.01235197e+02
682             	3.01235176e+02
683             	3.01235016e+02
684             	3.01234773e+02
685             	3.01234437e+02
686             	3.01234071e+02
687             	3.01233727e+02
688             	3.01233499e+02
689             	3.01233537e+02
690             	3.01233716e+02
691             	3.01234198e+02
692             	3.01235068e+02
693             	3.01235148e+02
694             	3.01235635e+02
695             	3.01235998e+02
696             	3.01236449e+02
697             	3.01236648e+02
698             	3.01236727e+02
699             	3.01236700e+02
700             	3.01236315e+02
701             	3.01235575e+02
702             	3.01234805e+02
703             	3.01235547e+02
704             	3.01235735e+02
705             	3.01236109e+02
706             	3.01236512e+02
707             	3.01237105e+02
708             	3.01238762e+02
709             	3.01238548e+02
710             	3.01238406e+02
711             	3.01238317e+02
712             	3.01238141e+02
713             	3.01237880e+02
714             	3.01236670e+02
715             	3.01236606e+02
716             	3.01236121e+02
717             	3.01235918e+02
718             	3.01235461e+02
719             	3.01235101e+02
720             	3.01234647e+02
721             	3.01234388e+02
722             	3.01234203e+02
723             	3.01233955e+02
724             	3.01234134e+02
725             	3.01235241e+02
726             	3.01235291e+02
727             	3.01235701e+02
728             	3.01235994e+02
729             	3.01236207e+02
730             	3.01236442e+02
731             	3.01236590e+02
732             	3.01236563e+02
733             	3.01236407e+02
734             	3.01235744e+02
735             	3.01235661e+02
736             	3.01235101e+02
737             	3.01235137e+02
738             	3.01234994e+02
739             	3.01234853e+02
740             	3.01234800e+02
741             	3.01234885e+02
742             	3.01235108e+02
743             	3.01235295e+02
744             	3.01235372e+02
745             	3.01235593e+02
746             	3.01235746e+02
747             	3.01235986e+02
748             	3.01236588e+02
749             	3.01236185e+02
750             	3.01236157e+02
751             	3.01235844e+02
752             	3.01235653e+02
753             	3.01235364e+02
754             	3.01235051e+02
755             	3.01234330e+02
756             	3.01234045e+02
757             	3.01234596e+02
758             	3.01234969e+02
759             	3.01235555e+02
760             	3.01236240e+02
761             	3.01237366e+02
762             	3.01237031e+02
763             	3.01237186e+02
764             	3.01237051e+02
765             	3.01237403e+02
766             	3.01236920e+02
767             	3.01236860e+02
768             	3.01236576e+02
769             	3.01236335e+02
770             	3.01236042e+02
771             	3.01235800e+02
772             	3.01235595e+02
773             	3.01235506e+02
774             	3.01235416e+02
775             	3.01235273e+02
776             	3.01234932e+02
777             	3.01234769e+02
778             	3.01234025e+02
779             	3.01234188e+02
780             	3.01234012e+02
781             	3.01233820e+02
782             	3.01233520e+02
783             	3.01233244e+02
784             	3.01233005e+02
785             	3.01232719e+02
786             	3.01232572e+02
787             	3.01232977e+02
788             	3.01233109e+02
789             	3.01233642e+02
790             	3.01234162e+02
791             	3.01234452e+02
792             	3.01235065e+02
793             	3.01234879e+02
794             	3.01234848e+02
795             	3.01234593e+02
796             	3.01234362e+02
797             	3.01234124e+02
798             	3.01233914e+02
799             	3.01233658e+02
800             	3.01233381e+02
801             	3.01232905e+02
802             	3.01232988e+02
803             	3.01232886e+02
804             	3.01232758e+02
805             	3.01232713e+02
806             	3.01232751e+02
807             	3.01232722e+02
808             	3.01232737e+02
809             	3.01232668e+02
810             	3.01233025e+02
811             	3.01233321e+02
812             	3.01234303e+02
813             	3.01234223e+02
814             	3.01234685e+02
815             	3.01234733e+02
816             	3.01235021e+02
817             	3.01235051e+02
818             	3.01235189e+02
819             	3.01235120e+02
820             	3.01235157e+02
821             	3.01235043e+02
822             	3.01234490e+02
823             	3.01234277e+02
824             	3.01233671e+02
825             	3.01233078e+02
826             	3.01233328e+02
827             	3.01233251e+02
828             	3.01233308e+02
829             	3.01233360e+02
830             	3.01233483e+02
831             	3.01234086e+02
832             	3.01234877e+02
833             	3.01234134e+02
834             	3.01234187e+02
835             	3.01233850e+02
836             	3.01233831e+02
837             	3.01233627e+02
838             	3.01233603e+02
839             	3.01233536e+02
840             	3.01233571e+02
841             	3.01233577e+02
842             	3.01233739e+02
843             	3.01233974e+02
844             	3.01234284e+02
845             	3.01234502e+02
846             	3.01234475e+02
847             	3.01234419e+02
848             	3.01234210e+02
849             	3.01233926e+02
850             	3.01233150e+02
851             	3.01233597e+02
852             	3.01233376e+02
853             	3.01233268e+02
854             	3.01233104e+02
855             	3.01233062e+02
856             	3.01233052e+02
857             	3.01233226e+02
858             	3.01233448e+02
859             	3.01233972e+02
860             	3.01234749e+02
861             	3.01235152e+02
862             	3.01234805e+02
863             	3.01234822e+02
864             	3.01234488e+02
865             	3.01234238e+02
866             	3.01233607e+02
867             	3.01233067e+02
868             	3.01233310e+02
869             	3.01233385e+02
870             	3.01233513e+02
871             	3.01233725e+02
872             	3.01233674e+02
873             	3.01234119e+02
874             	3.01234026e+02
875             	3.01234275e+02
876             	3.01234370e+02
877             	3.01234559e+02
878             	3.01234966e+02
879             	3.01235306e+02
880             	3.01236516e+02
881             	3.01236254e+02
882             	3.01236682e+02
883             	3.01236751e+02
884             	3.01236829e+02
885             	3.01236688e+02
886             	3.01236544e+02
887             	3.01235699e+02
888             	3.01234788e+02
889             	3.01234703e+02
890             	3.01233368e+02
891             	3.01233867e+02
892             	3.01233643e+02
893             	3.01233561e+02
894             	3.01233501e+02
895             	3.01234247e+02
896             	3.01234622e+02
897             	3.01236503e+02
898             	3.01237163e+02
899             	3.01237016e+02
900             	3.01237596e+02
901             	3.01238001e+02
902             	3.01237964e+02
903             	3.01236936e+02
904             	3.01236453e+02
905             	3.01235464e+02
906             	3.01235603e+02
907             	3.01235185e+02
908             	3.01235053e+02
909             	3.01234989e+02
910             	3.01235160e+02
911             	3.01238187e+02
912             	3.01238459e+02
913             	3.01238365e+02
914             	3.01237663e+02
915             	3.01237669e+02
916             	3.01236943e+02
917             	3.01236256e+02
918             	3.01234614e+02
919             	3.01235528e+02
920             	3.01235251e+02
921             	3.01235412e+02
922             	3.01235237e+02
923             	3.01235214e+02
924             	3.01236315e+02
925             	3.01237181e+02
926             	3.01237520e+02
927             	3.01237059e+02
928             	3.01237290e+02
929             	3.01237325e+02
930             	3.01236924e+02
931             	3.01236501e+02
932             	3.01236038e+02
933             	3.01236001e+02