# Region        : cellZone pcb
# Cells         : 404
# Volume        : 7.80934998e-01
# Time          	volAverage(T)
1               	3.00014077e+02
2               	3.00041206e+02
3               	3.00079204e+02
4               	3.00125504e+02
5               	3.00166224e+02
6               	3.00206624e+02
7               	3.00253077e+02
8               	3.00305085e+02
9               	3.00366046e+02
10              	3.00430939e+02
11              	3.00497979e+02
12              	3.00569765e+02
13              	3.00645307e+02
14              	3.00724910e+02
15              	3.00807945e+02
16              	3.00891289e+02
17              	3.00958046e+02
18              	3.01030531e+02
19              	3.01107505e+02
20              	3.01181056e+02
21              	3.01261359e+02
22              	3.01349167e+02
23              	3.01439828e+02
24              	3.01531880e+02
25              	3.01623447e+02
26              	3.01714957e+02
27              	3.01806125e+02
28              	3.01895509e+02
29              	3.01976589e+02
30              	3.02056932e+02
31              	3.02142683e+02
32              	3.02231952e+02
33              	3.02328053e+02
34              	3.02426704e+02
35              	3.02521609e+02
36              	3.02617229e+02
37              	3.02713563e+02
38              	3.02805013e+02
39              	3.02896047e+02
40              	3.02985595e+02
41              	3.03070363e+02
42              	3.03146171e+02
43              	3.03212964e+02
44              	3.03286429e+02
45              	3.03370120e+02
46              	3.03461780e+02
47              	3.03547109e+02
48              	3.03630661e+02
49              	3.03712083e+02
50              	3.03796302e+02
51              	3.03880022e+02
52              	3.03953460e+02
53              	3.04024030e+02
54              	3.04096956e+02
55              	3.04169451e+02
56              	3.04241488e+02
57              	3.04308536e+02
58              	3.04373581e+02
59              	3.04432230e+02
60              	3.04488547e+02
61              	3.04540872e+02
62              	3.04596464e+02
63              	3.04651049e+02
64              	3.04706548e+02
65              	3.04765336e+02
66              	3.04826159e+02
67              	3.04885129e+02
68              	3.04941643e+02
69              	3.04998113e+02
70              	3.05056089e+02
71              	3.05112968e+02
72              	3.05178953e+02
73              	3.05235397e+02
74              	3.05285065e+02
75              	3.05340309e+02
76              	3.05396851e+02
77              	3.05450006e+02
78              	3.05499899e+02
79              	3.05546865e+02
80              	3.05594342e+02
81              	3.05642373e+02
82              	3.05689441e+02
83              	3.05730859e+02
84              	3.05765153e+02
85              	3.05799036e+02
86              	3.05840530e+02
87              	3.05877751e+02
88              	3.05915100e+02
89              	3.05956567e+02
90              	3.06002280e+02
91              	3.06047475e+02
92              	3.06088515e+02
93              	3.06131156e+02
94              	3.06173608e+02
95              	3.06215161e+02
96              	3.06261544e+02
97              	3.06302948e+02
98              	3.06342750e+02
99              	3.06373265e+02
100             	3.06396377e+02
101             	3.06423750e+02
102             	3.06447041e+02
103             	3.06470689e+02
104             	3.06498493e+02
105             	3.06526069e+02
106             	3.06552995e+02
107             	3.06580298e+02
108             	3.06609753e+02
109             	3.06647892e+02
110             	3.06683888e+02
111             	3.06715564e+02
112             	3.06749738e+02
113             	3.06783528e+02
114             	3.06805432e+02
115             	3.06818107e+02
116             	3.06835465e+02
117             	3.06849406e+02
118             	3.06865055e+02
119             	3.06882158e+02
120             	3.06900046e+02
121             	3.06918384e+02
122             	3.06936534e+02
123             	3.06957583e+02
124             	3.06979335e+02
125             	3.07003644e+02
126             	3.07026397e+02
127             	3.07046214e+02
128             	3.07066462e+02
129             	3.07087963e+02
130             	3.07108416e+02
131             	3.07126337e+02
132             	3.07140135e+02
133             	3.07151594e+02
134             	3.07162604e+02
135             	3.07176061e+02
136             	3.07191909e+02
137             	3.07208397e+02
138             	3.07222338e+02
139             	3.07236152e+02
140             	3.07253284e+02
141             	3.07268046e+02
142             	3.07280295e+02
143             	3.07292626e+02
144             	3.07304813e+02
145             	3.07316888e+02
146             	3.07329309e+02
147             	3.07342499e+02
148             	3.07356431e+02
149             	3.07370605e+02
150             	3.07384232e+02
151             	3.07398106e+02
152             	3.07411995e+02
153             	3.07425517e+02
154             	3.07438676e+02
155             	3.07452373e+02
156             	3.07464281e+02
157             	3.07473843e+02
158             	3.07484937e+02
159             	3.07492448e+02
160             	3.07499441e+02
161             	3.07508034e+02
162             	3.07517551e+02
163             	3.07527958e+02
164             	3.07538504e+02
165             	3.07549814e+02
166             	3.07562401e+02
167             	3.07575953e+02
168             	3.07587868e+02
169             	3.07599083e+02
170             	3.07610516e+02
171             	3.07623067e+02
172             	3.07634088e+02
173             	3.07641768e+02
174             	3.07646820e+02
175             	3.07652470e+02
176             	3.07657587e+02
177             	3.07663421e+02
178             	3.07671497e+02
179             	3.07680590e+02
180             	3.07689719e+02
181             	3.07698447e+02
182             	3.07707059e+02
183             	3.07716336e+02
184             	3.07724966e+02
185             	3.07735118e+02
186             	3.07748118e+02
187             	3.07762741e+02
188             	3.07775310e+02
189             	3.07788647e+02
190             	3.07791146e+02
191             	3.07787435e+02
192             	3.07787935e+02
193             	3.07791797e+02
194             	3.07796957e+02
195             	3.07802208e+02
196             	3.07807387e+02
197             	3.07812392e+02
198             	3.07817748e+02
199             	3.07823935e+02
200             	3.07830754e+02
201             	3.07837523e+02
202             	3.07843271e+02
203             	3.07848543e+02
204             	3.07854219e+02
205             	3.07860190e+02
206             	3.07865981e+02
207             	3.07871661e+02
208             	3.07876702e+02
209             	3.07881084e+02
210             	3.07885026e+02
211             	3.07889229e+02
212             	3.07893856e+02
213             	3.07898344e+02
214             	3.07901848e+02
215             	3.07905504e+02
216             	3.07909226e+02
217             	3.07912997e+02
218             	3.07917106e+02
219             	3.07921287e+02
220             	3.07925625e+02
221             	3.07930282e+02
222             	3.07934664e+02
223             	3.07938768e+02
224             	3.07943260e+02
225             	3.07947847e+02
226             	3.07952347e+02
227             	3.07957178e+02
228             	3.07961833e+02
229             	3.07965589e+02
230             	3.07969544e+02
231             	3.07973378e+02
232             	3.07977058e+02
233             	3.07980953e+02
234             	3.07985327e+02
235             	3.07989560e+02
236             	3.07992792e+02
237             	3.07994985e+02
238             	3.07997685e+02
239             	3.08000904e+02
240             	3.08003264e+02
241             	3.08005371e+02
242             	3.08008087e+02
243             	3.08011244e+02
244             	3.08014488e+02
245             	3.08017995e+02
246             	3.08021857e+02
247             	3.08026023e+02
248             	3.08029970e+02
249             	3.08034177e+02
250             	3.08038496e+02
251             	3.08041847e+02
252             	3.08044358e+02
253             	3.08046612e+02
254             	3.08048633e+02
255             	3.08050018e+02
256             	3.08051437e+02
257             	3.08053244e+02
258             	3.08054958e+02
259             	3.08056784e+02
260             	3.08058964e+02
261             	3.08061590e+02
262             	3.08064392e+02
263             	3.08067188e+02
264             	3.08069900e+02
265             	3.08071673e+02
266             	3.08073526e+02
267             	3.08075606e+02
268             	3.08077875e+02
269             	3.08080246e+02
270             	3.08083295e+02
271             	3.08086949e+02
272             	3.08089958e+02
273             	3.08092580e+02
274             	3.08095217e+02
275             	3.08097668e+02
276             	3.08099861e+02
277             	3.08101819e+02
278             	3.08103379e+02
279             	3.08104887e+02
280             	3.08106708e+02
281             	3.08108488e+02
282             	3.08110146e+02
283             	3.08111839e+02
284             	3.08113632e+02
285             	3.08115389e+02
286             	3.08117551e+02
287             	3.08119355e+02
288             	3.08120159e+02
289             	3.08121460e+02
290             	3.08123174e+02
291             	3.08124857e+02
292             	3.08126930e+02
293             	3.08129564e+02
294             	3.08132480e+02
295             	3.08134847e+02
296             	3.08136677e+02
297             	3.08138333e+02
298             	3.08139979e+02
299             	3.08141464e+02
300             	3.08143187e+02
301             	3.08145275e+02
302             	3.08146258e+02
303             	3.08146255e+02
304             	3.08145867e+02
305             	3.08145895e+02
306             	3.08146723e+02
307             	3.08147099e+02
308             	3.08147470e+02
309             	3.08148465e+02
310             	3.08150023e+02
311             	3.08151967e+02
312             	3.08155048e+02
313             	3.08158630e+02
314             	3.08161114e+02
315             	3.08162945e+02
316             	3.08164650e+02
317             	3.08165800e+02
318             	3.08166024e+02
319             	3.08165721e+02
320             	3.08166250e+02
321             	3.08167035e+02
322             	3.08167796e+02
323             	3.08169087e+02
324             	3.08170584e+02
325             	3.08171721e+02
326             	3.08173794e+02
327             	3.08176181e+02
328             	3.08178617e+02
329             	3.08181364e+02
330             	3.08183556e+02
331             	3.08184496e+02
332             	3.08184280e+02
333             	3.08183995e+02
334             	3.08184838e+02
335             	3.08186189e+02
336             	3.08187090e+02
337             	3.08188071e+02
338             	3.08189270e+02
339             	3.08190826e+02
340             	3.08192426e+02
341             	3.08193429e+02
342             	3.08194048e+02
343             	3.08194711e+02
344             	3.08195259e+02
345             	3.08195367e+02
346             	3.08194847e+02
347             	3.08194026e+02
348             	3.08193792e+02
349             	3.08193801e+02
350             	3.08193845e+02
351             	3.08194037e+02
352             	3.08194655e+02
353             	3.08195928e+02
354             	3.08197800e+02
355             	3.08198780e+02
356             	3.08198965e+02
357             	3.08199442e+02
358             	3.08199985e+02
359             	3.08200429e+02
360             	3.08200365e+02
361             	3.08200375e+02
362             	3.08201070e+02
363             	3.08201990e+02
364             	3.08202515e+02
365             	3.08202809e+02
366             	3.08203381e+02
367             	3.08204146e+02
368             	3.08205147e+02
369             	3.08206798e+02
370             	3.08208177e+02
371             	3.08208972e+02
372             	3.08209572e+02
373             	3.08209860e+02
374             	3.08209798e+02
375             	3.08209311e+02
376             	3.08208682e+02
377             	3.08208539e+02
378             	3.08208726e+02
379             	3.08209054e+02
380             	3.08209522e+02
381             	3.08210194e+02
382             	3.08210867e+02
383             	3.08211370e+02
384             	3.08212427e+02
385             	3.08213232e+02
386             	3.08213475e+02
387             	3.08213695e+02
388             	3.08213959e+02
389             	3.08213950e+02
390             	3.08213919e+02
391             	3.08214211e+02
392             	3.08214110e+02
393             	3.08214200e+02
394             	3.08214784e+02
395             	3.08215419e+02
396             	3.08216124e+02
397             	3.08216708e+02
398             	3.08217116e+02
399             	3.08217445e+02
400             	3.08217699e+02
401             	3.08217886e+02
402             	3.08217981e+02
403             	3.08218031e+02
404             	3.08218108e+02
405             	3.08218354e+02
406             	3.08218538e+02
407             	3.08218741e+02
408             	3.08219009e+02
409             	3.08219295e+02
410             	3.08219743e+02
411             	3.08220371e+02
412             	3.08221000e+02
413             	3.08221441e+02
414             	3.08221799e+02
415             	3.08222003e+02
416             	3.08222094e+02
417             	3.08222284e+02
418             	3.08222599e+02
419             	3.08223046e+02
420             	3.08223479e+02
421             	3.08223849e+02
422             	3.08224296e+02
423             	3.08224656e+02
424             	3.08224958e+02
425             	3.08225396e+02
426             	3.08226016e+02
427             	3.08226719e+02
428             	3.08227373e+02
429             	3.08227980e+02
430             	3.08228521e+02
431             	3.08229022e+02
432             	3.08229499e+02
433             	3.08229885e+02
434             	3.08230192e+02
435             	3.08230439e+02
436             	3.08230705e+02
437             	3.08230944e+02
438             	3.08231068e+02
439             	3.08231089e+02
440             	3.08231067e+02
441             	3.08231041e+02
442             	3.08231045e+02
443             	3.08231041e+02
444             	3.08230999e+02
445             	3.08231087e+02
446             	3.08231182e+02
447             	3.08231240e+02
448             	3.08231350e+02
449             	3.08231508e+02
450             	3.08231722e+02
451             	3.08231920e+02
452             	3.08232087e+02
453             	3.08232244e+02
454             	3.08232385e+02
455             	3.08232539e+02
456             	3.08232697e+02
457             	3.08232813e+02
458             	3.08232786e+02
459             	3.08232741e+02
460             	3.08232769e+02
461             	3.08232780e+02
462             	3.08232824e+02
463             	3.08232950e+02
464             	3.08233154e+02
465             	3.08233424e+02
466             	3.08233731e+02
467             	3.08234121e+02
468             	3.08234572e+02
469             	3.08234996e+02
470             	3.08235409e+02
471             	3.08235796e+02
472             	3.08236133e+02
473             	3.08236412e+02
474             	3.08236621e+02
475             	3.08236767e+02
476             	3.08236844e+02
477             	3.08237012e+02
478             	3.08237372e+02
479             	3.08237616e+02
480             	3.08237790e+02
481             	3.08237989e+02
482             	3.08238174e+02
483             	3.08238375e+02
484             	3.08238591e+02
485             	3.08238819e+02
486             	3.08239073e+02
487             	3.08239340e+02
488             	3.08239655e+02
489             	3.08239970e+02
490             	3.08240254e+02
491             	3.08240514e+02
492             	3.08240645e+02
493             	3.08240821e+02
494             	3.08240980e+02
495             	3.08240955e+02
496             	3.08240837e+02
497             	3.08240689e+02
498             	3.08240564e+02
499             	3.08240515e+02
500             	3.08240538e+02
501             	3.08240370e+02
502             	3.08239948e+02
503             	3.08239595e+02
504             	3.08239573e+02
505             	3.08239709e+02
506             	3.08239884e+02
507             	3.08240067e+02
508             	3.08240262e+02
509             	3.08240517e+02
510             	3.08240668e+02
511             	3.08240684e+02
512             	3.08240908e+02
513             	3.08241406e+02
514             	3.08242029e+02
515             	3.08242538e+02
516             	3.08242793e+02
517             	3.08243001e+02
518             	3.08243205e+02
519             	3.08243652e+02
520             	3.08244197e+02
521             	3.08244491e+02
522             	3.08244554e+02
523             	3.08244364e+02
524             	3.08243812e+02
525             	3.08243389e+02
526             	3.08243437e+02
527             	3.08243621e+02
528             	3.08243890e+02
529             	3.08244357e+02
530             	3.08245180e+02
531             	3.08245889e+02
532             	3.08246299e+02
533             	3.08246643e+02
534             	3.08246870e+02
535             	3.08246950e+02
536             	3.08246872e+02
537             	3.08246710e+02
538             	3.08246472e+02
539             	3.08246152e+02
540             	3.08245676e+02
541             	3.08245162e+02
542             	3.08244920e+02
543             	3.08244841e+02
544             	3.08244792e+02
545             	3.08244850e+02
546             	3.08245038e+02
547             	3.08245417e+02
548             	3.08245853e+02
549             	3.08245990e+02
550             	3.08246147e+02
551             	3.08246399e+02
552             	3.08246555e+02
553             	3.08246551e+02
554             	3.08246540e+02
555             	3.08246524e+02
556             	3.08246524e+02
557             	3.08246396e+02
558             	3.08246267e+02
559             	3.08245985e+02
560             	3.08245750e+02
561             	3.08245727e+02
562             	3.08245677e+02
563             	3.08245601e+02
564             	3.08245725e+02
565             	3.08245865e+02
566             	3.08246124e+02
567             	3.08246495e+02
568             	3.08246864e+02
569             	3.08247353e+02
570             	3.08247855e+02
571             	3.08248264e+02
572             	3.08248577e+02
573             	3.08248792e+02
574             	3.08248849e+02
575             	3.08248816e+02
576             	3.08248786e+02
577             	3.08248712e+02
578             	3.08248455e+02
579             	3.08247944e+02
580             	3.08247619e+02
581             	3.08247547e+02
582             	3.08247625e+02
583             	3.08247811e+02
584             	3.08248072e+02
585             	3.08248354e+02
586             	3.08248436e+02
587             	3.08248487e+02
588             	3.08248624e+02
589             	3.08248774e+02
590             	3.08248852e+02
591             	3.08249016e+02
592             	3.08249445e+02
593             	3.08249655e+02
594             	3.08249513e+02
595             	3.08249341e+02
596             	3.08249262e+02
597             	3.08249278e+02
598             	3.08249182e+02
599             	3.08248818e+02
600             	3.08248362e+02
601             	3.08247921e+02
602             	3.08247604e+02
603             	3.08247404e+02
604             	3.08247298e+02
605             	3.08247267e+02
606             	3.08246981e+02
607             	3.08246834e+02
608             	3.08246833e+02
609             	3.08247045e+02
610             	3.08247672e+02
611             	3.08248266e+02
612             	3.08248528e+02
613             	3.08248678e+02
614             	3.08248781e+02
615             	3.08248802e+02
616             	3.08248767e+02
617             	3.08248426e+02
618             	3.08247980e+02
619             	3.08247789e+02
620             	3.08247790e+02
621             	3.08247855e+02
622             	3.08247904e+02
623             	3.08247944e+02
624             	3.08248025e+02
625             	3.08248165e+02
626             	3.08248332e+02
627             	3.08248474e+02
628             	3.08248402e+02
629             	3.08248109e+02
630             	3.08248075e+02
631             	3.08248214e+02
632             	3.08248289e+02
633             	3.08248622e+02
634             	3.08249179e+02
635             	3.08249403e+02
636             	3.08249359e+02
637             	3.08249430e+02
638             	3.08249553e+02
639             	3.08249547e+02
640             	3.08249445e+02
641             	3.08249213e+02
642             	3.08248677e+02
643             	3.08248236e+02
644             	3.08248059e+02
645             	3.08247888e+02
646             	3.08247648e+02
647             	3.08247484e+02
648             	3.08247647e+02
649             	3.08247839e+02
650             	3.08247872e+02
651             	3.08248050e+02
652             	3.08248135e+02
653             	3.08247887e+02
654             	3.08247572e+02
655             	3.08247456e+02
656             	3.08247484e+02
657             	3.08247435e+02
658             	3.08247313e+02
659             	3.08247357e+02
660             	3.08247541e+02
661             	3.08247748e+02
662             	3.08247960e+02
663             	3.08248177e+02
664             	3.08248401e+02
665             	3.08248637e+02
666             	3.08248860e+02
667             	3.08249017e+02
668             	3.08248925e+02
669             	3.08248699e+02
670             	3.08248579e+02
671             	3.08248463e+02
672             	3.08248421e+02
673             	3.08248655e+02
674             	3.08248835e+02
675             	3.08248842e+02
676             	3.08248746e+02
677             	3.08248638e+02
678             	3.08248626e+02
679             	3.08248678e+02
680             	3.08248763e+02
681             	3.08248862e+02
682             	3.08248971e+02
683             	3.08249132e+02
684             	3.08249274e+02
685             	3.08249351e+02
686             	3.08249413e+02
687             	3.08249431e+02
688             	3.08249442e+02
689             	3.08249436e+02
690             	3.08249411e+02
691             	3.08249340e+02
692             	3.08249286e+02
693             	3.08249323e+02
694             	3.08249426e+02
695             	3.08249554e+02
696             	3.08249532e+02
697             	3.08249356e+02
698             	3.08249182e+02
699             	3.08249039e+02
700             	3.08248887e+02
701             	3.08248683e+02
702             	3.08248425e+02
703             	3.08248049e+02
704             	3.08247790e+02
705             	3.08247611e+02
706             	3.08247396e+02
707             	3.08247282e+02
708             	3.08247270e+02
709             	3.08247389e+02
710             	3.08247571e+02
711             	3.08247732e+02
712             	3.08247897e+02
713             	3.08248109e+02
714             	3.08248337e+02
715             	3.08248574e+02
716             	3.08248768e+02
717             	3.08248803e+02
718             	3.08248864e+02
719             	3.08249027e+02
720             	3.08249253e+02
721             	3.08249417e+02
722             	3.08249524e+02
723             	3.08249702e+02
724             	3.08249850e+02
725             	3.08249997e+02
726             	3.08250127e+02
727             	3.08250046e+02
728             	3.08249836e+02
729             	3.08249525e+02
730             	3.08249216e+02
731             	3.08249077e+02
732             	3.08249045e+02
733             	3.08249087e+02
734             	3.08249210e+02
735             	3.08249519e+02
736             	3.08249982e+02
737             	3.08250333e+02
738             	3.08250531e+02
739             	3.08250660e+02
740             	3.08250740e+02
741             	3.08250789e+02
742             	3.08250719e+02
743             	3.08250720e+02
744             	3.08250608e+02
745             	3.08250284e+02
746             	3.08249964e+02
747             	3.08249828e+02
748             	3.08249755e+02
749             	3.08249737e+02
750             	3.08249754e+02
751             	3.08249684e+02
752             	3.08249622e+02
753             	3.08249653e+02
754             	3.08249713e+02
755             	3.08249822e+02
756             	3.08250099e+02
757             	3.08250412e+02
758             	3.08250538e+02
759             	3.08250593e+02
760             	3.08250661e+02
761             	3.08250746e+02
762             	3.08250801e+02
763             	3.08250801e+02
764             	3.08250578e+02
765             	3.08250341e+02
766             	3.08250206e+02
767             	3.08250137e+02
768             	3.08250168e+02
769             	3.08250260e+02
770             	3.08250422e+02
771             	3.08250635e+02
772             	3.08251068e+02
773             	3.08251484e+02
774             	3.08251782e+02
775             	3.08251974e+02
776             	3.08252066e+02
777             	3.08252065e+02
778             	3.08251983e+02
779             	3.08251779e+02
780             	3.08251621e+02
781             	3.08251542e+02
782             	3.08251387e+02
783             	3.08251056e+02
784             	3.08250787e+02
785             	3.08250670e+02
786             	3.08250632e+02
787             	3.08250579e+02
788             	3.08250608e+02
789             	3.08250730e+02
790             	3.08250807e+02
791             	3.08250834e+02
792             	3.08250801e+02
793             	3.08250715e+02
794             	3.08250598e+02
795             	3.08250467e+02
796             	3.08250341e+02
797             	3.08250197e+02
798             	3.08250051e+02
799             	3.08249934e+02
800             	3.08249847e+02
801             	3.08249907e+02
802             	3.08249834e+02
803             	3.08249641e+02
804             	3.08249545e+02
805             	3.08249515e+02
806             	3.08249236e+02
807             	3.08248893e+02
808             	3.08248811e+02
809             	3.08248810e+02
810             	3.08248852e+02
811             	3.08248913e+02
812             	3.08249038e+02
813             	3.08249231e+02
814             	3.08249483e+02
815             	3.08249832e+02
816             	3.08250249e+02
817             	3.08250571e+02
818             	3.08250723e+02
819             	3.08250828e+02
820             	3.08250918e+02
821             	3.08250943e+02
822             	3.08250895e+02
823             	3.08250808e+02
824             	3.08250704e+02
825             	3.08250490e+02
826             	3.08250360e+02
827             	3.08250505e+02
828             	3.08250519e+02
829             	3.08250505e+02
830             	3.08250468e+02
831             	3.08250407e+02
832             	3.08250533e+02
833             	3.08250645e+02
834             	3.08250678e+02
835             	3.08250732e+02
836             	3.08250768e+02
837             	3.08250809e+02
838             	3.08250810e+02
839             	3.08250780e+02
840             	3.08250721e+02
841             	3.08250532e+02
842             	3.08250446e+02
843             	3.08250449e+02
844             	3.08250369e+02
845             	3.08250254e+02
846             	3.08250161e+02
847             	3.08250162e+02
848             	3.08250279e+02
849             	3.08250292e+02
850             	3.08250277e+02
851             	3.08250276e+02
852             	3.08250244e+02
853             	3.08250250e+02
854             	3.08250304e+02
855             	3.08250359e+02
856             	3.08250331e+02
857             	3.08250264e+02
858             	3.08250293e+02
859             	3.08250327e+02
860             	3.08250382e+02
861             	3.08250443e+02
862             	3.08250477e+02
863             	3.08250558e+02
864             	3.08250685e+02
865             	3.08250888e+02
866             	3.08251016e+02
867             	3.08251056e+02
868             	3.08251149e+02
869             	3.08251345e+02
870             	3.08251559e+02
871             	3.08251700e+02
872             	3.08251796e+02
873             	3.08251917e+02
874             	3.08252040e+02
875             	3.08252088e+02
876             	3.08252072e+02
877             	3.08252057e+02
878             	3.08252059e+02
879             	3.08252029e+02
880             	3.08252000e+02
881             	3.08251922e+02
882             	3.08251785e+02
883             	3.08251582e+02
884             	3.08251357e+02
885             	3.08251172e+02
886             	3.08251009e+02
887             	3.08250858e+02
888             	3.08250736e+02
889             	3.08250645e+02
890             	3.08250556e+02
891             	3.08250469e+02
892             	3.08250406e+02
893             	3.08250359e+02
894             	3.08250318e+02
895             	3.08250267e+02
896             	3.08250200e+02
897             	3.08250116e+02
898             	3.08250030e+02
899             	3.08249959e+02
900             	3.08249898e+02
901             	3.08249837e+02
902             	3.08249789e+02
903             	3.08249757e+02
904             	3.08249746e+02
905             	3.08249799e+02
906             	3.08249833e+02
907             	3.08249854e+02
908             	3.08249855e+02
909             	3.08249899e+02
910             	3.08249993e+02
911             	3.08250097e+02
912             	3.08250215e+02
913             	3.08250347e+02
914             	3.08250490e+02
915             	3.08250632e+02
916             	3.08250750e+02
917             	3.08250852e+02
918             	3.08250918e+02
919             	3.08250980e+02
920             	3.08251057e+02
921             	3.08251123e+02
922             	3.08251181e+02
923             	3.08251224e+02
924             	3.08251254e+02
925             	3.08251271e+02
926             	3.08251274e+02
927             	3.08251240e+02
928             	3.08251217e+02
929             	3.08251212e+02
930             	3.08251187e+02
931             	3.08251136e+02
932             	3.08251070e+02
933             	3.08251001e+02