# Region        : cellZone fluid
# Cells         : 9305
# Volume        : 1.80025846e+01
# Time          	volAverage(T)
1               	3.00000063e+02
2               	3.00000119e+02
3               	3.00000667e+02
4               	3.00001395e+02
5               	3.00001805e+02
6               	3.00002297e+02
7               	3.00002788e+02
8               	3.00003434e+02
9               	3.00004277e+02
10              	3.00005257e+02
11              	3.00006349e+02
12              	3.00007886e+02
13              	3.00010243e+02
14              	3.00011853e+02
15              	3.00013853e+02
16              	3.00015771e+02
17              	3.00017432e+02
18              	3.00018653e+02
19              	3.00019987e+02
20              	3.00021135e+02
21              	3.00023685e+02
22              	3.00024597e+02
23              	3.00025316e+02
24              	3.00026511e+02
25              	3.00027611e+02
26              	3.00029547e+02
27              	3.00031468e+02
28              	3.00034103e+02
29              	3.00037551e+02
30              	3.00039595e+02
31              	3.00041936e+02
32              	3.00044250e+02
33              	3.00046826e+02
34              	3.00049017e+02
35              	3.00050876e+02
36              	3.00054026e+02
37              	3.00056159e+02
38              	3.00059061e+02
39              	3.00061036e+02
40              	3.00063471e+02
41              	3.00065798e+02
42              	3.00069078e+02
43              	3.00072923e+02
44              	3.00075394e+02
45              	3.00077323e+02
46              	3.00080884e+02
47              	3.00082241e+02
48              	3.00083457e+02
49              	3.00084968e+02
50              	3.00085966e+02
51              	3.00087437e+02
52              	3.00089540e+02
53              	3.00091402e+02
54              	3.00093737e+02
55              	3.00096533e+02
56              	3.00099381e+02
57              	3.00101907e+02
58              	3.00103655e+02
59              	3.00106176e+02
60              	3.00108260e+02
61              	3.00110294e+02
62              	3.00113792e+02
63              	3.00116869e+02
64              	3.00120052e+02
65              	3.00121759e+02
66              	3.00124495e+02
67              	3.00126328e+02
68              	3.00128444e+02
69              	3.00130073e+02
70              	3.00131850e+02
71              	3.00132670e+02
72              	3.00134077e+02
73              	3.00135351e+02
74              	3.00137249e+02
75              	3.00139224e+02
76              	3.00141022e+02
77              	3.00143144e+02
78              	3.00145158e+02
79              	3.00147467e+02
80              	3.00149545e+02
81              	3.00151047e+02
82              	3.00152545e+02
83              	3.00154101e+02
84              	3.00156470e+02
85              	3.00159835e+02
86              	3.00161873e+02
87              	3.00164943e+02
88              	3.00168460e+02
89              	3.00171505e+02
90              	3.00173681e+02
91              	3.00176022e+02
92              	3.00177395e+02
93              	3.00179574e+02
94              	3.00181285e+02
95              	3.00182372e+02
96              	3.00184192e+02
97              	3.00185541e+02
98              	3.00186809e+02
99              	3.00188202e+02
100             	3.00189335e+02
101             	3.00190829e+02
102             	3.00192233e+02
103             	3.00192912e+02
104             	3.00193686e+02
105             	3.00194171e+02
106             	3.00194731e+02
107             	3.00195727e+02
108             	3.00197080e+02
109             	3.00198284e+02
110             	3.00199281e+02
111             	3.00200497e+02
112             	3.00201934e+02
113             	3.00203317e+02
114             	3.00204329e+02
115             	3.00205950e+02
116             	3.00207870e+02
117             	3.00209607e+02
118             	3.00211494e+02
119             	3.00213401e+02
120             	3.00214981e+02
121             	3.00216936e+02
122             	3.00218521e+02
123             	3.00219826e+02
124             	3.00220612e+02
125             	3.00221582e+02
126             	3.00223811e+02
127             	3.00224235e+02
128             	3.00224777e+02
129             	3.00225602e+02
130             	3.00226249e+02
131             	3.00226934e+02
132             	3.00227907e+02
133             	3.00229068e+02
134             	3.00230348e+02
135             	3.00231037e+02
136             	3.00231796e+02
137             	3.00233058e+02
138             	3.00233225e+02
139             	3.00234210e+02
140             	3.00234965e+02
141             	3.00235421e+02
142             	3.00235872e+02
143             	3.00236382e+02
144             	3.00237988e+02
145             	3.00241083e+02
146             	3.00241578e+02
147             	3.00243243e+02
148             	3.00243835e+02
149             	3.00244535e+02
150             	3.00244480e+02
151             	3.00245708e+02
152             	3.00245643e+02
153             	3.00245937e+02
154             	3.00246902e+02
155             	3.00247521e+02
156             	3.00247796e+02
157             	3.00249707e+02
158             	3.00252002e+02
159             	3.00253129e+02
160             	3.00253138e+02
161             	3.00254267e+02
162             	3.00254967e+02
163             	3.00256217e+02
164             	3.00256123e+02
165             	3.00255643e+02
166             	3.00255786e+02
167             	3.00256472e+02
168             	3.00256928e+02
169             	3.00257417e+02
170             	3.00258173e+02
171             	3.00258695e+02
172             	3.00260471e+02
173             	3.00260379e+02
174             	3.00260339e+02
175             	3.00259760e+02
176             	3.00259260e+02
177             	3.00259230e+02
178             	3.00259243e+02
179             	3.00259506e+02
180             	3.00259661e+02
181             	3.00260007e+02
182             	3.00260331e+02
183             	3.00260664e+02
184             	3.00260901e+02
185             	3.00261204e+02
186             	3.00261471e+02
187             	3.00261756e+02
188             	3.00261696e+02
189             	3.00261878e+02
190             	3.00262154e+02
191             	3.00262561e+02
192             	3.00262934e+02
193             	3.00263412e+02
194             	3.00263827e+02
195             	3.00264156e+02
196             	3.00264436e+02
197             	3.00264767e+02
198             	3.00265160e+02
199             	3.00265527e+02
200             	3.00265821e+02
201             	3.00266211e+02
202             	3.00267009e+02
203             	3.00267204e+02
204             	3.00267518e+02
205             	3.00267898e+02
206             	3.00268232e+02
207             	3.00268689e+02
208             	3.00269065e+02
209             	3.00269600e+02
210             	3.00270094e+02
211             	3.00270583e+02
212             	3.00270994e+02
213             	3.00271464e+02
214             	3.00271874e+02
215             	3.00272317e+02
216             	3.00272609e+02
217             	3.00272762e+02
218             	3.00273128e+02
219             	3.00273518e+02
220             	3.00273907e+02
221             	3.00274298e+02
222             	3.00274574e+02
223             	3.00274942e+02
224             	3.00275323e+02
225             	3.00275526e+02
226             	3.00276018e+02
227             	3.00276060e+02
228             	3.00276449e+02
229             	3.00276652e+02
230             	3.00276739e+02
231             	3.00276953e+02
232             	3.00277265e+02
233             	3.00277526e+02
234             	3.00277737e+02
235             	3.00278010e+02
236             	3.00278303e+02
237             	3.00278614e+02
238             	3.00278997e+02
239             	3.00279413e+02
240             	3.00279692e+02
241             	3.00279667e+02
242             	3.00280149e+02
243             	3.00280511e+02
244             	3.00280818e+02
245             	3.00281064e+02
246             	3.00281508e+02
247             	3.00282000e+02
248             	3.00282083e+02
249             	3.00282253e+02
250             	3.00282548e+02
251             	3.00282839e+02
252             	3.00283036e+02
253             	3.00283332e+02
254             	3.00283527e+02
255             	3.00283775e+02
256             	3.00283949e+02
257             	3.00284061e+02
258             	3.00284136e+02
259             	3.00284635e+02
260             	3.00284751e+02
261             	3.00285174e+02
262             	3.00285377e+02
263             	3.00285545e+02
264             	3.00285610e+02
265             	3.00285853e+02
266             	3.00286069e+02
267             	3.00286248e+02
268             	3.00286448e+02
269             	3.00286591e+02
270             	3.00286737e+02
271             	3.00286929e+02
272             	3.00287148e+02
273             	3.00287311e+02
274             	3.00287530e+02
275             	3.00287669e+02
276             	3.00287885e+02
277             	3.00287992e+02
278             	3.00288282e+02
279             	3.00288561e+02
280             	3.00288759e+02
281             	3.00288757e+02
282             	3.00289034e+02
283             	3.00289321e+02
284             	3.00289449e+02
285             	3.00289566e+02
286             	3.00289715e+02
287             	3.00289841e+02
288             	3.00289954e+02
289             	3.00290103e+02
290             	3.00290449e+02
291             	3.00290403e+02
292             	3.00290551e+02
293             	3.00290612e+02
294             	3.00290718e+02
295             	3.00290903e+02
296             	3.00291005e+02
297             	3.00291158e+02
298             	3.00291308e+02
299             	3.00291484e+02
300             	3.00291591e+02
301             	3.00291790e+02
302             	3.00291903e+02
303             	3.00292045e+02
304             	3.00292144e+02
305             	3.00292291e+02
306             	3.00292445e+02
307             	3.00292663e+02
308             	3.00292801e+02
309             	3.00292941e+02
310             	3.00293123e+02
311             	3.00293245e+02
312             	3.00293399e+02
313             	3.00293530e+02
314             	3.00293690e+02
315             	3.00293726e+02
316             	3.00293951e+02
317             	3.00293978e+02
318             	3.00294115e+02
319             	3.00294239e+02
320             	3.00294329e+02
321             	3.00294472e+02
322             	3.00294582e+02
323             	3.00294717e+02
324             	3.00294763e+02
325             	3.00294907e+02
326             	3.00294957e+02
327             	3.00295063e+02
328             	3.00295144e+02
329             	3.00295290e+02
330             	3.00295292e+02
331             	3.00295442e+02
332             	3.00295451e+02
333             	3.00295574e+02
334             	3.00295585e+02
335             	3.00295763e+02
336             	3.00295718e+02
337             	3.00295868e+02
338             	3.00295923e+02
339             	3.00296016e+02
340             	3.00296092e+02
341             	3.00296195e+02
342             	3.00296220e+02
343             	3.00296361e+02
344             	3.00296378e+02
345             	3.00296475e+02
346             	3.00296508e+02
347             	3.00296608e+02
348             	3.00296592e+02
349             	3.00296775e+02
350             	3.00296766e+02
351             	3.00296886e+02
352             	3.00296897e+02
353             	3.00297038e+02
354             	3.00297021e+02
355             	3.00297202e+02
356             	3.00297177e+02
357             	3.00297309e+02
358             	3.00297325e+02
359             	3.00297462e+02
360             	3.00297422e+02
361             	3.00297620e+02
362             	3.00297582e+02
363             	3.00297715e+02
364             	3.00297709e+02
365             	3.00297871e+02
366             	3.00297799e+02
367             	3.00298011e+02
368             	3.00297926e+02
369             	3.00298013e+02
370             	3.00298058e+02
371             	3.00298160e+02
372             	3.00298144e+02
373             	3.00298287e+02
374             	3.00298268e+02
375             	3.00298370e+02
376             	3.00298361e+02
377             	3.00298500e+02
378             	3.00298415e+02
379             	3.00298567e+02
380             	3.00298529e+02
381             	3.00298661e+02
382             	3.00298624e+02
383             	3.00298743e+02
384             	3.00298701e+02
385             	3.00298879e+02
386             	3.00298831e+02
387             	3.00298942e+02
388             	3.00298932e+02
389             	3.00299061e+02
390             	3.00298980e+02
391             	3.00299124e+02
392             	3.00299105e+02
393             	3.00299216e+02
394             	3.00299186e+02
395             	3.00299306e+02
396             	3.00299254e+02
397             	3.00299428e+02
398             	3.00299363e+02
399             	3.00299465e+02
400             	3.00299474e+02
401             	3.00299601e+02
402             	3.00299529e+02
403             	3.00299686e+02
404             	3.00299623e+02
405             	3.00299735e+02
406             	3.00299689e+02
407             	3.00299741e+02
408             	3.00299688e+02
409             	3.00299824e+02
410             	3.00299743e+02
411             	3.00299849e+02
412             	3.00299762e+02
413             	3.00299861e+02
414             	3.00299756e+02
415             	3.00299874e+02
416             	3.00299803e+02
417             	3.00299879e+02
418             	3.00299837e+02
419             	3.00299927e+02
420             	3.00299841e+02
421             	3.00299960e+02
422             	3.00299880e+02
423             	3.00299969e+02
424             	3.00299932e+02
425             	3.00300053e+02
426             	3.00299953e+02
427             	3.00300105e+02
428             	3.00300048e+02
429             	3.00300172e+02
430             	3.00300122e+02
431             	3.00300218e+02
432             	3.00300161e+02
433             	3.00300314e+02
434             	3.00300230e+02
435             	3.00300319e+02
436             	3.00300293e+02
437             	3.00300422e+02
438             	3.00300326e+02
439             	3.00300442e+02
440             	3.00300415e+02
441             	3.00300490e+02
442             	3.00300476e+02
443             	3.00300572e+02
444             	3.00300489e+02
445             	3.00300637e+02
446             	3.00300537e+02
447             	3.00300620e+02
448             	3.00300573e+02
449             	3.00300688e+02
450             	3.00300556e+02
451             	3.00300667e+02
452             	3.00300597e+02
453             	3.00300684e+02
454             	3.00300596e+02
455             	3.00300657e+02
456             	3.00300581e+02
457             	3.00300681e+02
458             	3.00300590e+02
459             	3.00300666e+02
460             	3.00300596e+02
461             	3.00300672e+02
462             	3.00300586e+02
463             	3.00300724e+02
464             	3.00300617e+02
465             	3.00300692e+02
466             	3.00300653e+02
467             	3.00300761e+02
468             	3.00300649e+02
469             	3.00300772e+02
470             	3.00300703e+02
471             	3.00300811e+02
472             	3.00300741e+02
473             	3.00300819e+02
474             	3.00300765e+02
475             	3.00300884e+02
476             	3.00300815e+02
477             	3.00300918e+02
478             	3.00300854e+02
479             	3.00300943e+02
480             	3.00300867e+02
481             	3.00301003e+02
482             	3.00300908e+02
483             	3.00300988e+02
484             	3.00300934e+02
485             	3.00301032e+02
486             	3.00300923e+02
487             	3.00301051e+02
488             	3.00300961e+02
489             	3.00301041e+02
490             	3.00300979e+02
491             	3.00301062e+02
492             	3.00300965e+02
493             	3.00301091e+02
494             	3.00300983e+02
495             	3.00301048e+02
496             	3.00300997e+02
497             	3.00301099e+02
498             	3.00300970e+02
499             	3.00301074e+02
500             	3.00301001e+02
501             	3.00301078e+02
502             	3.00301011e+02
503             	3.00301098e+02
504             	3.00300994e+02
505             	3.00301122e+02
506             	3.00301026e+02
507             	3.00301100e+02
508             	3.00301053e+02
509             	3.00301152e+02
510             	3.00301045e+02
511             	3.00301163e+02
512             	3.00301094e+02
513             	3.00301192e+02
514             	3.00301120e+02
515             	3.00301200e+02
516             	3.00301127e+02
517             	3.00301247e+02
518             	3.00301157e+02
519             	3.00301240e+02
520             	3.00301170e+02
521             	3.00301249e+02
522             	3.00301151e+02
523             	3.00301280e+02
524             	3.00301163e+02
525             	3.00301220e+02
526             	3.00301173e+02
527             	3.00301254e+02
528             	3.00301146e+02
529             	3.00301269e+02
530             	3.00301164e+02
531             	3.00301231e+02
532             	3.00301178e+02
533             	3.00301278e+02
534             	3.00301149e+02
535             	3.00301254e+02
536             	3.00301178e+02
537             	3.00301257e+02
538             	3.00301185e+02
539             	3.00301268e+02
540             	3.00301168e+02
541             	3.00301299e+02
542             	3.00301189e+02
543             	3.00301249e+02
544             	3.00301209e+02
545             	3.00301301e+02
546             	3.00301179e+02
547             	3.00301276e+02
548             	3.00301215e+02
549             	3.00301289e+02
550             	3.00301227e+02
551             	3.00301303e+02
552             	3.00301204e+02
553             	3.00301337e+02
554             	3.00301229e+02
555             	3.00301299e+02
556             	3.00301246e+02
557             	3.00301347e+02
558             	3.00301222e+02
559             	3.00301328e+02
560             	3.00301259e+02
561             	3.00301336e+02
562             	3.00301273e+02
563             	3.00301360e+02
564             	3.00301259e+02
565             	3.00301386e+02
566             	3.00301291e+02
567             	3.00301364e+02
568             	3.00301304e+02
569             	3.00301397e+02
570             	3.00301282e+02
571             	3.00301399e+02
572             	3.00301310e+02
573             	3.00301396e+02
574             	3.00301321e+02
575             	3.00301396e+02
576             	3.00301303e+02
577             	3.00301431e+02
578             	3.00301325e+02
579             	3.00301385e+02
580             	3.00301336e+02
581             	3.00301434e+02
582             	3.00301307e+02
583             	3.00301405e+02
584             	3.00301342e+02
585             	3.00301403e+02
586             	3.00301347e+02
587             	3.00301438e+02
588             	3.00301318e+02
589             	3.00301429e+02
590             	3.00301343e+02
591             	3.00301427e+02
592             	3.00301348e+02
593             	3.00301418e+02
594             	3.00301328e+02
595             	3.00301454e+02
596             	3.00301341e+02
597             	3.00301407e+02
598             	3.00301352e+02
599             	3.00301450e+02
600             	3.00301319e+02
601             	3.00301421e+02
602             	3.00301349e+02
603             	3.00301420e+02
604             	3.00301346e+02
605             	3.00301431e+02
606             	3.00301322e+02
607             	3.00301446e+02
608             	3.00301338e+02
609             	3.00301406e+02
610             	3.00301345e+02
611             	3.00301437e+02
612             	3.00301315e+02
613             	3.00301417e+02
614             	3.00301338e+02
615             	3.00301417e+02
616             	3.00301339e+02
617             	3.00301413e+02
618             	3.00301324e+02
619             	3.00301450e+02
620             	3.00301343e+02
621             	3.00301407e+02
622             	3.00301358e+02
623             	3.00301459e+02
624             	3.00301330e+02
625             	3.00301430e+02
626             	3.00301362e+02
627             	3.00301430e+02
628             	3.00301369e+02
629             	3.00301456e+02
630             	3.00301344e+02
631             	3.00301461e+02
632             	3.00301368e+02
633             	3.00301447e+02
634             	3.00301375e+02
635             	3.00301455e+02
636             	3.00301359e+02
637             	3.00301491e+02
638             	3.00301376e+02
639             	3.00301435e+02
640             	3.00301391e+02
641             	3.00301483e+02
642             	3.00301360e+02
643             	3.00301467e+02
644             	3.00301382e+02
645             	3.00301467e+02
646             	3.00301379e+02
647             	3.00301442e+02
648             	3.00301360e+02
649             	3.00301470e+02
650             	3.00301370e+02
651             	3.00301444e+02
652             	3.00301374e+02
653             	3.00301455e+02
654             	3.00301348e+02
655             	3.00301474e+02
656             	3.00301368e+02
657             	3.00301434e+02
658             	3.00301380e+02
659             	3.00301475e+02
660             	3.00301352e+02
661             	3.00301457e+02
662             	3.00301379e+02
663             	3.00301458e+02
664             	3.00301384e+02
665             	3.00301457e+02
666             	3.00301366e+02
667             	3.00301495e+02
668             	3.00301382e+02
669             	3.00301443e+02
670             	3.00301401e+02
671             	3.00301493e+02
672             	3.00301373e+02
673             	3.00301485e+02
674             	3.00301401e+02
675             	3.00301490e+02
676             	3.00301407e+02
677             	3.00301474e+02
678             	3.00301393e+02
679             	3.00301507e+02
680             	3.00301407e+02
681             	3.00301479e+02
682             	3.00301412e+02
683             	3.00301493e+02
684             	3.00301383e+02
685             	3.00301502e+02
686             	3.00301398e+02
687             	3.00301467e+02
688             	3.00301403e+02
689             	3.00301490e+02
690             	3.00301372e+02
691             	3.00301484e+02
692             	3.00301391e+02
693             	3.00301470e+02
694             	3.00301394e+02
695             	3.00301466e+02
696             	3.00301370e+02
697             	3.00301503e+02
698             	3.00301382e+02
699             	3.00301435e+02
700             	3.00301399e+02
701             	3.00301477e+02
702             	3.00301369e+02
703             	3.00301491e+02
704             	3.00301388e+02
705             	3.00301458e+02
706             	3.00301400e+02
707             	3.00301492e+02
708             	3.00301374e+02
709             	3.00301485e+02
710             	3.00301400e+02
711             	3.00301488e+02
712             	3.00301406e+02
713             	3.00301475e+02
714             	3.00301391e+02
715             	3.00301510e+02
716             	3.00301407e+02
717             	3.00301476e+02
718             	3.00301416e+02
719             	3.00301505e+02
720             	3.00301386e+02
721             	3.00301495e+02
722             	3.00301406e+02
723             	3.00301488e+02
724             	3.00301405e+02
725             	3.00301472e+02
726             	3.00301383e+02
727             	3.00301503e+02
728             	3.00301394e+02
729             	3.00301457e+02
730             	3.00301402e+02
731             	3.00301496e+02
732             	3.00301368e+02
733             	3.00301471e+02
734             	3.00301392e+02
735             	3.00301468e+02
736             	3.00301391e+02
737             	3.00301465e+02
738             	3.00301366e+02
739             	3.00301499e+02
740             	3.00301379e+02
741             	3.00301432e+02
742             	3.00301396e+02
743             	3.00301475e+02
744             	3.00301365e+02
745             	3.00301487e+02
746             	3.00301383e+02
747             	3.00301452e+02
748             	3.00301393e+02
749             	3.00301484e+02
750             	3.00301366e+02
751             	3.00301478e+02
752             	3.00301390e+02
753             	3.00301475e+02
754             	3.00301395e+02
755             	3.00301464e+02
756             	3.00301377e+02
757             	3.00301499e+02
758             	3.00301391e+02
759             	3.00301455e+02
760             	3.00301401e+02
761             	3.00301496e+02
762             	3.00301369e+02
763             	3.00301472e+02
764             	3.00301394e+02
765             	3.00301469e+02
766             	3.00301394e+02
767             	3.00301468e+02
768             	3.00301369e+02
769             	3.00301501e+02
770             	3.00301382e+02
771             	3.00301436e+02
772             	3.00301398e+02
773             	3.00301478e+02
774             	3.00301364e+02
775             	3.00301480e+02
776             	3.00301383e+02
777             	3.00301457e+02
778             	3.00301388e+02
779             	3.00301469e+02
780             	3.00301363e+02
781             	3.00301488e+02
782             	3.00301381e+02
783             	3.00301446e+02
784             	3.00301393e+02
785             	3.00301488e+02
786             	3.00301363e+02
787             	3.00301468e+02
788             	3.00301391e+02
789             	3.00301469e+02
790             	3.00301394e+02
791             	3.00301469e+02
792             	3.00301373e+02
793             	3.00301507e+02
794             	3.00301386e+02
795             	3.00301440e+02
796             	3.00301405e+02
797             	3.00301484e+02
798             	3.00301374e+02
799             	3.00301495e+02
800             	3.00301392e+02
801             	3.00301462e+02
802             	3.00301401e+02
803             	3.00301489e+02
804             	3.00301373e+02
805             	3.00301485e+02
806             	3.00301393e+02
807             	3.00301471e+02
808             	3.00301397e+02
809             	3.00301471e+02
810             	3.00301374e+02
811             	3.00301506e+02
812             	3.00301387e+02
813             	3.00301441e+02
814             	3.00301404e+02
815             	3.00301484e+02
816             	3.00301373e+02
817             	3.00301491e+02
818             	3.00301391e+02
819             	3.00301463e+02
820             	3.00301399e+02
821             	3.00301484e+02
822             	3.00301373e+02
823             	3.00301491e+02
824             	3.00301393e+02
825             	3.00301467e+02
826             	3.00301401e+02
827             	3.00301485e+02
828             	3.00301377e+02
829             	3.00301499e+02
830             	3.00301397e+02
831             	3.00301467e+02
832             	3.00301407e+02
833             	3.00301496e+02
834             	3.00301379e+02
835             	3.00301493e+02
836             	3.00301402e+02
837             	3.00301484e+02
838             	3.00301406e+02
839             	3.00301479e+02
840             	3.00301386e+02
841             	3.00301516e+02
842             	3.00301400e+02
843             	3.00301456e+02
844             	3.00301415e+02
845             	3.00301502e+02
846             	3.00301383e+02
847             	3.00301494e+02
848             	3.00301405e+02
849             	3.00301488e+02
850             	3.00301409e+02
851             	3.00301479e+02
852             	3.00301390e+02
853             	3.00301514e+02
854             	3.00301404e+02
855             	3.00301465e+02
856             	3.00301416e+02
857             	3.00301515e+02
858             	3.00301383e+02
859             	3.00301480e+02
860             	3.00301411e+02
861             	3.00301475e+02
862             	3.00301414e+02
863             	3.00301503e+02
864             	3.00301384e+02
865             	3.00301496e+02
866             	3.00301407e+02
867             	3.00301491e+02
868             	3.00301411e+02
869             	3.00301480e+02
870             	3.00301392e+02
871             	3.00301514e+02
872             	3.00301406e+02
873             	3.00301471e+02
874             	3.00301417e+02
875             	3.00301513e+02
876             	3.00301386e+02
877             	3.00301490e+02
878             	3.00301412e+02
879             	3.00301489e+02
880             	3.00301415e+02
881             	3.00301490e+02
882             	3.00301392e+02
883             	3.00301523e+02
884             	3.00301405e+02
885             	3.00301460e+02
886             	3.00301421e+02
887             	3.00301504e+02
888             	3.00301388e+02
889             	3.00301502e+02
890             	3.00301408e+02
891             	3.00301485e+02
892             	3.00301413e+02
893             	3.00301488e+02
894             	3.00301387e+02
895             	3.00301517e+02
896             	3.00301402e+02
897             	3.00301459e+02
898             	3.00301415e+02
899             	3.00301504e+02
900             	3.00301381e+02
901             	3.00301489e+02
902             	3.00301405e+02
903             	3.00301491e+02
904             	3.00301406e+02
905             	3.00301472e+02
906             	3.00301389e+02
907             	3.00301503e+02
908             	3.00301403e+02
909             	3.00301477e+02
910             	3.00301410e+02
911             	3.00301494e+02
912             	3.00301385e+02
913             	3.00301506e+02
914             	3.00301402e+02
915             	3.00301472e+02
916             	3.00301412e+02
917             	3.00301502e+02
918             	3.00301384e+02
919             	3.00301495e+02
920             	3.00301406e+02
921             	3.00301490e+02
922             	3.00301410e+02
923             	3.00301479e+02
924             	3.00301390e+02
925             	3.00301512e+02
926             	3.00301402e+02
927             	3.00301464e+02
928             	3.00301412e+02
929             	3.00301510e+02
930             	3.00301378e+02
931             	3.00301477e+02
932             	3.00301405e+02
933             	3.00301471e+02