# Region        : cellZone fluid
# Cells         : 8180
# Volume        : 1.57569088e+01
# Time          	volAverage(T)
1               	3.00000014e+02
2               	3.00000043e+02
3               	3.00000311e+02
4               	3.00000707e+02
5               	3.00001053e+02
6               	3.00001430e+02
7               	3.00001973e+02
8               	3.00002602e+02
9               	3.00003205e+02
10              	3.00003961e+02
11              	3.00004797e+02
12              	3.00005571e+02
13              	3.00006657e+02
14              	3.00007838e+02
15              	3.00008650e+02
16              	3.00010095e+02
17              	3.00011145e+02
18              	3.00012533e+02
19              	3.00013686e+02
20              	3.00014960e+02
21              	3.00016274e+02
22              	3.00017544e+02
23              	3.00019081e+02
24              	3.00020629e+02
25              	3.00022277e+02
26              	3.00023547e+02
27              	3.00025209e+02
28              	3.00026458e+02
29              	3.00028007e+02
30              	3.00029345e+02
31              	3.00030849e+02
32              	3.00032291e+02
33              	3.00034078e+02
34              	3.00036176e+02
35              	3.00038053e+02
36              	3.00040120e+02
37              	3.00042098e+02
38              	3.00043627e+02
39              	3.00045461e+02
40              	3.00047044e+02
41              	3.00048791e+02
42              	3.00050721e+02
43              	3.00052664e+02
44              	3.00054662e+02
45              	3.00056382e+02
46              	3.00058235e+02
47              	3.00060152e+02
48              	3.00061854e+02
49              	3.00063300e+02
50              	3.00064861e+02
51              	3.00066485e+02
52              	3.00068264e+02
53              	3.00070239e+02
54              	3.00071951e+02
55              	3.00073832e+02
56              	3.00075663e+02
57              	3.00078089e+02
58              	3.00079981e+02
59              	3.00081831e+02
60              	3.00084507e+02
61              	3.00086670e+02
62              	3.00088926e+02
63              	3.00091310e+02
64              	3.00093210e+02
65              	3.00094759e+02
66              	3.00096814e+02
67              	3.00098772e+02
68              	3.00100745e+02
69              	3.00102464e+02
70              	3.00104323e+02
71              	3.00106328e+02
72              	3.00108083e+02
73              	3.00110165e+02
74              	3.00112690e+02
75              	3.00114797e+02
76              	3.00117019e+02
77              	3.00119054e+02
78              	3.00121091e+02
79              	3.00123508e+02
80              	3.00125755e+02
81              	3.00127917e+02
82              	3.00130006e+02
83              	3.00131985e+02
84              	3.00133452e+02
85              	3.00135071e+02
86              	3.00137018e+02
87              	3.00138724e+02
88              	3.00140642e+02
89              	3.00142769e+02
90              	3.00144636e+02
91              	3.00146638e+02
92              	3.00148708e+02
93              	3.00150527e+02
94              	3.00151806e+02
95              	3.00153027e+02
96              	3.00154293e+02
97              	3.00156165e+02
98              	3.00157844e+02
99              	3.00159713e+02
100             	3.00161769e+02
101             	3.00164412e+02
102             	3.00166488e+02
103             	3.00168863e+02
104             	3.00171532e+02
105             	3.00174191e+02
106             	3.00176583e+02
107             	3.00177724e+02
108             	3.00179226e+02
109             	3.00180875e+02
110             	3.00182300e+02
111             	3.00183748e+02
112             	3.00185329e+02
113             	3.00187435e+02
114             	3.00189392e+02
115             	3.00191224e+02
116             	3.00192953e+02
117             	3.00195503e+02
118             	3.00196287e+02
119             	3.00197447e+02
120             	3.00198405e+02
121             	3.00199653e+02
122             	3.00200542e+02
123             	3.00201428e+02
124             	3.00202486e+02
125             	3.00204022e+02
126             	3.00205419e+02
127             	3.00207179e+02
128             	3.00208826e+02
129             	3.00210707e+02
130             	3.00212449e+02
131             	3.00213834e+02
132             	3.00214757e+02
133             	3.00215436e+02
134             	3.00215885e+02
135             	3.00216462e+02
136             	3.00217127e+02
137             	3.00217680e+02
138             	3.00218164e+02
139             	3.00218552e+02
140             	3.00219271e+02
141             	3.00219841e+02
142             	3.00220782e+02
143             	3.00221440e+02
144             	3.00221860e+02
145             	3.00222220e+02
146             	3.00222543e+02
147             	3.00223027e+02
148             	3.00223188e+02
149             	3.00223215e+02
150             	3.00223047e+02
151             	3.00223292e+02
152             	3.00223827e+02
153             	3.00223945e+02
154             	3.00224533e+02
155             	3.00225195e+02
156             	3.00225934e+02
157             	3.00226331e+02
158             	3.00227236e+02
159             	3.00228273e+02
160             	3.00228954e+02
161             	3.00228987e+02
162             	3.00228891e+02
163             	3.00229556e+02
164             	3.00229883e+02
165             	3.00230252e+02
166             	3.00231114e+02
167             	3.00231609e+02
168             	3.00232245e+02
169             	3.00232672e+02
170             	3.00233095e+02
171             	3.00233315e+02
172             	3.00233385e+02
173             	3.00233408e+02
174             	3.00233505e+02
175             	3.00233735e+02
176             	3.00233916e+02
177             	3.00234214e+02
178             	3.00234718e+02
179             	3.00235147e+02
180             	3.00235641e+02
181             	3.00236083e+02
182             	3.00236325e+02
183             	3.00236397e+02
184             	3.00236000e+02
185             	3.00235558e+02
186             	3.00235088e+02
187             	3.00234771e+02
188             	3.00234803e+02
189             	3.00234733e+02
190             	3.00234786e+02
191             	3.00234815e+02
192             	3.00234882e+02
193             	3.00234925e+02
194             	3.00234859e+02
195             	3.00234914e+02
196             	3.00234765e+02
197             	3.00234518e+02
198             	3.00234266e+02
199             	3.00233941e+02
200             	3.00233687e+02
201             	3.00233548e+02
202             	3.00233498e+02
203             	3.00233565e+02
204             	3.00233552e+02
205             	3.00233617e+02
206             	3.00233842e+02
207             	3.00234116e+02
208             	3.00234403e+02
209             	3.00234684e+02
210             	3.00234484e+02
211             	3.00234417e+02
212             	3.00234271e+02
213             	3.00234155e+02
214             	3.00234049e+02
215             	3.00234027e+02
216             	3.00234141e+02
217             	3.00234130e+02
218             	3.00234245e+02
219             	3.00234512e+02
220             	3.00234750e+02
221             	3.00234557e+02
222             	3.00234409e+02
223             	3.00234130e+02
224             	3.00233916e+02
225             	3.00233698e+02
226             	3.00233500e+02
227             	3.00233374e+02
228             	3.00233187e+02
229             	3.00233066e+02
230             	3.00232917e+02
231             	3.00232825e+02
232             	3.00232688e+02
233             	3.00232447e+02
234             	3.00232270e+02
235             	3.00232118e+02
236             	3.00231998e+02
237             	3.00231859e+02
238             	3.00231656e+02
239             	3.00231436e+02
240             	3.00231245e+02
241             	3.00231025e+02
242             	3.00230762e+02
243             	3.00230566e+02
244             	3.00230247e+02
245             	3.00229976e+02
246             	3.00229741e+02
247             	3.00229537e+02
248             	3.00229322e+02
249             	3.00229110e+02
250             	3.00228990e+02
251             	3.00228894e+02
252             	3.00228787e+02
253             	3.00228613e+02
254             	3.00228488e+02
255             	3.00228296e+02
256             	3.00228122e+02
257             	3.00227980e+02
258             	3.00227797e+02
259             	3.00227588e+02
260             	3.00227369e+02
261             	3.00227228e+02
262             	3.00227079e+02
263             	3.00226918e+02
264             	3.00226739e+02
265             	3.00226526e+02
266             	3.00226306e+02
267             	3.00226123e+02
268             	3.00225933e+02
269             	3.00225746e+02
270             	3.00225636e+02
271             	3.00225385e+02
272             	3.00225185e+02
273             	3.00225014e+02
274             	3.00224868e+02
275             	3.00224720e+02
276             	3.00224576e+02
277             	3.00224418e+02
278             	3.00224237e+02
279             	3.00224050e+02
280             	3.00223859e+02
281             	3.00223658e+02
282             	3.00223365e+02
283             	3.00223200e+02
284             	3.00223019e+02
285             	3.00222825e+02
286             	3.00222631e+02
287             	3.00222466e+02
288             	3.00222309e+02
289             	3.00222159e+02
290             	3.00222005e+02
291             	3.00221885e+02
292             	3.00221772e+02
293             	3.00221655e+02
294             	3.00221512e+02
295             	3.00221353e+02
296             	3.00221214e+02
297             	3.00221089e+02
298             	3.00220972e+02
299             	3.00220893e+02
300             	3.00220820e+02
301             	3.00220716e+02
302             	3.00220609e+02
303             	3.00220492e+02
304             	3.00220357e+02
305             	3.00220196e+02
306             	3.00220039e+02
307             	3.00219902e+02
308             	3.00219775e+02
309             	3.00219645e+02
310             	3.00219530e+02
311             	3.00219433e+02
312             	3.00219357e+02
313             	3.00219212e+02
314             	3.00219128e+02
315             	3.00219046e+02
316             	3.00218934e+02
317             	3.00218823e+02
318             	3.00218714e+02
319             	3.00218630e+02
320             	3.00218562e+02
321             	3.00218500e+02
322             	3.00218425e+02
323             	3.00218346e+02
324             	3.00218285e+02
325             	3.00218220e+02
326             	3.00218158e+02
327             	3.00218082e+02
328             	3.00217989e+02
329             	3.00217900e+02
330             	3.00217835e+02
331             	3.00217766e+02
332             	3.00217705e+02
333             	3.00217622e+02
334             	3.00217549e+02
335             	3.00217470e+02
336             	3.00217409e+02
337             	3.00217353e+02
338             	3.00217304e+02
339             	3.00217254e+02
340             	3.00217188e+02
341             	3.00217134e+02
342             	3.00217082e+02
343             	3.00217030e+02
344             	3.00216977e+02
345             	3.00216920e+02
346             	3.00216855e+02
347             	3.00216791e+02
348             	3.00216709e+02
349             	3.00216676e+02
350             	3.00216642e+02
351             	3.00216618e+02
352             	3.00216587e+02
353             	3.00216563e+02
354             	3.00216539e+02
355             	3.00216514e+02
356             	3.00216493e+02
357             	3.00216480e+02
358             	3.00216452e+02
359             	3.00216437e+02
360             	3.00216435e+02
361             	3.00216423e+02
362             	3.00216409e+02
363             	3.00216393e+02
364             	3.00216365e+02
365             	3.00216331e+02
366             	3.00216296e+02
367             	3.00216259e+02
368             	3.00216226e+02
369             	3.00216200e+02
370             	3.00216183e+02
371             	3.00216174e+02
372             	3.00216152e+02
373             	3.00216149e+02
374             	3.00216136e+02
375             	3.00216120e+02
376             	3.00216097e+02
377             	3.00216069e+02
378             	3.00216047e+02
379             	3.00216033e+02
380             	3.00216016e+02
381             	3.00215991e+02
382             	3.00215962e+02
383             	3.00215933e+02
384             	3.00215907e+02
385             	3.00215891e+02
386             	3.00215879e+02
387             	3.00215867e+02
388             	3.00215857e+02
389             	3.00215853e+02
390             	3.00215862e+02
391             	3.00215868e+02
392             	3.00215860e+02
393             	3.00215865e+02
394             	3.00215870e+02
395             	3.00215872e+02
396             	3.00215874e+02
397             	3.00215874e+02
398             	3.00215879e+02
399             	3.00215883e+02
400             	3.00215880e+02
401             	3.00215877e+02
402             	3.00215880e+02
403             	3.00215869e+02
404             	3.00215867e+02
405             	3.00215860e+02
406             	3.00215854e+02
407             	3.00215862e+02
408             	3.00215864e+02
409             	3.00215864e+02
410             	3.00215866e+02
411             	3.00215866e+02
412             	3.00215862e+02
413             	3.00215859e+02
414             	3.00215858e+02
415             	3.00215859e+02
416             	3.00215861e+02
417             	3.00215868e+02
418             	3.00215875e+02
419             	3.00215879e+02
420             	3.00215881e+02
421             	3.00215882e+02
422             	3.00215880e+02
423             	3.00215877e+02
424             	3.00215874e+02
425             	3.00215870e+02
426             	3.00215870e+02
427             	3.00215874e+02
428             	3.00215881e+02
429             	3.00215890e+02
430             	3.00215902e+02
431             	3.00215913e+02
432             	3.00215916e+02
433             	3.00215921e+02
434             	3.00215927e+02
435             	3.00215931e+02
436             	3.00215932e+02
437             	3.00215932e+02
438             	3.00215935e+02
439             	3.00215940e+02
440             	3.00215949e+02
441             	3.00215958e+02
442             	3.00215969e+02
443             	3.00215977e+02
444             	3.00215981e+02
445             	3.00215982e+02
446             	3.00215979e+02
447             	3.00215973e+02
448             	3.00215964e+02
449             	3.00215952e+02
450             	3.00215939e+02
451             	3.00215929e+02
452             	3.00215918e+02
453             	3.00215909e+02
454             	3.00215904e+02
455             	3.00215903e+02
456             	3.00215910e+02
457             	3.00215907e+02
458             	3.00215906e+02
459             	3.00215905e+02
460             	3.00215903e+02
461             	3.00215901e+02
462             	3.00215898e+02
463             	3.00215896e+02
464             	3.00215893e+02
465             	3.00215891e+02
466             	3.00215890e+02
467             	3.00215890e+02
468             	3.00215888e+02
469             	3.00215899e+02
470             	3.00215906e+02
471             	3.00215913e+02
472             	3.00215918e+02
473             	3.00215922e+02
474             	3.00215925e+02
475             	3.00215928e+02
476             	3.00215933e+02
477             	3.00215938e+02
478             	3.00215938e+02
479             	3.00215937e+02
480             	3.00215934e+02
481             	3.00215930e+02
482             	3.00215923e+02
483             	3.00215918e+02
484             	3.00215916e+02
485             	3.00215921e+02
486             	3.00215921e+02
487             	3.00215924e+02
488             	3.00215928e+02
489             	3.00215933e+02
490             	3.00215934e+02
491             	3.00215936e+02
492             	3.00215935e+02
493             	3.00215938e+02
494             	3.00215942e+02
495             	3.00215948e+02
496             	3.00215954e+02
497             	3.00215960e+02
498             	3.00215966e+02
499             	3.00215972e+02
500             	3.00215976e+02
501             	3.00215976e+02
502             	3.00215975e+02
503             	3.00215975e+02
504             	3.00215974e+02
505             	3.00215971e+02
506             	3.00215969e+02
507             	3.00215969e+02
508             	3.00215971e+02
509             	3.00215974e+02
510             	3.00215975e+02
511             	3.00215977e+02
512             	3.00215979e+02
513             	3.00215980e+02
514             	3.00215978e+02
515             	3.00215975e+02
516             	3.00215977e+02
517             	3.00215980e+02
518             	3.00215984e+02
519             	3.00215988e+02
520             	3.00215994e+02
521             	3.00216001e+02
522             	3.00216005e+02
523             	3.00216010e+02
524             	3.00216012e+02
525             	3.00216012e+02
526             	3.00216011e+02
527             	3.00216009e+02
528             	3.00216006e+02
529             	3.00216003e+02
530             	3.00216002e+02
531             	3.00216001e+02
532             	3.00216001e+02
533             	3.00216000e+02
534             	3.00215999e+02
535             	3.00215997e+02
536             	3.00215995e+02
537             	3.00215992e+02
538             	3.00215990e+02
539             	3.00215987e+02
540             	3.00215984e+02
541             	3.00215982e+02
542             	3.00215980e+02
543             	3.00215979e+02
544             	3.00215978e+02
545             	3.00215977e+02
546             	3.00215975e+02
547             	3.00215973e+02
548             	3.00215972e+02
549             	3.00215970e+02
550             	3.00215970e+02
551             	3.00215969e+02
552             	3.00215968e+02
553             	3.00215968e+02
554             	3.00215972e+02
555             	3.00215971e+02
556             	3.00215971e+02
557             	3.00215972e+02
558             	3.00215972e+02
559             	3.00215973e+02
560             	3.00215974e+02
561             	3.00215971e+02
562             	3.00215975e+02
563             	3.00215977e+02
564             	3.00215980e+02
565             	3.00215982e+02
566             	3.00215984e+02
567             	3.00215987e+02
568             	3.00215991e+02
569             	3.00215994e+02
570             	3.00215997e+02
571             	3.00215999e+02
572             	3.00216002e+02
573             	3.00216003e+02
574             	3.00216005e+02
575             	3.00216007e+02
576             	3.00216009e+02
577             	3.00216011e+02
578             	3.00216013e+02
579             	3.00216016e+02
580             	3.00216018e+02
581             	3.00216019e+02
582             	3.00216021e+02
583             	3.00216024e+02
584             	3.00216025e+02
585             	3.00216030e+02
586             	3.00216031e+02
587             	3.00216033e+02
588             	3.00216036e+02
589             	3.00216039e+02
590             	3.00216042e+02
591             	3.00216045e+02
592             	3.00216048e+02
593             	3.00216047e+02
594             	3.00216049e+02
595             	3.00216053e+02
596             	3.00216055e+02
597             	3.00216058e+02
598             	3.00216061e+02
599             	3.00216066e+02
600             	3.00216072e+02
601             	3.00216081e+02
602             	3.00216083e+02
603             	3.00216087e+02
604             	3.00216092e+02
605             	3.00216097e+02
606             	3.00216096e+02
607             	3.00216097e+02
608             	3.00216104e+02
609             	3.00216109e+02
610             	3.00216113e+02
611             	3.00216116e+02
612             	3.00216120e+02
613             	3.00216128e+02
614             	3.00216132e+02
615             	3.00216139e+02
616             	3.00216142e+02
617             	3.00216146e+02
618             	3.00216150e+02
619             	3.00216154e+02
620             	3.00216159e+02
621             	3.00216164e+02
622             	3.00216169e+02
623             	3.00216171e+02
624             	3.00216178e+02
625             	3.00216180e+02
626             	3.00216187e+02
627             	3.00216193e+02
628             	3.00216198e+02
629             	3.00216203e+02
630             	3.00216208e+02
631             	3.00216212e+02
632             	3.00216217e+02
633             	3.00216221e+02
634             	3.00216226e+02
635             	3.00216229e+02
636             	3.00216236e+02
637             	3.00216242e+02
638             	3.00216245e+02
639             	3.00216250e+02
640             	3.00216255e+02
641             	3.00216260e+02
642             	3.00216266e+02
643             	3.00216270e+02
644             	3.00216272e+02
645             	3.00216276e+02
646             	3.00216276e+02
647             	3.00216281e+02
648             	3.00216286e+02
649             	3.00216291e+02
650             	3.00216295e+02
651             	3.00216299e+02
652             	3.00216306e+02
653             	3.00216316e+02
654             	3.00216327e+02
655             	3.00216349e+02
656             	3.00216357e+02
657             	3.00216370e+02
658             	3.00216381e+02
659             	3.00216392e+02
660             	3.00216399e+02
661             	3.00216405e+02
662             	3.00216413e+02
663             	3.00216418e+02
664             	3.00216426e+02
665             	3.00216434e+02
666             	3.00216441e+02
667             	3.00216445e+02
668             	3.00216454e+02
669             	3.00216454e+02
670             	3.00216468e+02
671             	3.00216480e+02
672             	3.00216493e+02
673             	3.00216506e+02
674             	3.00216521e+02
675             	3.00216536e+02
676             	3.00216550e+02
677             	3.00216563e+02
678             	3.00216573e+02
679             	3.00216585e+02
680             	3.00216603e+02
681             	3.00216612e+02
682             	3.00216625e+02
683             	3.00216641e+02
684             	3.00216654e+02
685             	3.00216670e+02
686             	3.00216687e+02
687             	3.00216703e+02
688             	3.00216719e+02
689             	3.00216735e+02
690             	3.00216749e+02
691             	3.00216760e+02
692             	3.00216774e+02
693             	3.00216788e+02
694             	3.00216802e+02
695             	3.00216814e+02
696             	3.00216828e+02
697             	3.00216841e+02
698             	3.00216860e+02
699             	3.00216876e+02
700             	3.00216891e+02
701             	3.00216903e+02
702             	3.00216915e+02
703             	3.00216929e+02
704             	3.00216938e+02
705             	3.00216949e+02
706             	3.00216960e+02
707             	3.00216971e+02
708             	3.00216983e+02
709             	3.00216994e+02
710             	3.00217005e+02
711             	3.00217016e+02
712             	3.00217026e+02
713             	3.00217038e+02
714             	3.00217049e+02
715             	3.00217059e+02
716             	3.00217070e+02
717             	3.00217080e+02
718             	3.00217089e+02
719             	3.00217097e+02
720             	3.00217105e+02
721             	3.00217112e+02
722             	3.00217118e+02
723             	3.00217123e+02
724             	3.00217127e+02
725             	3.00217133e+02
726             	3.00217139e+02
727             	3.00217145e+02
728             	3.00217151e+02
729             	3.00217158e+02
730             	3.00217162e+02
731             	3.00217168e+02
732             	3.00217172e+02
733             	3.00217175e+02
734             	3.00217177e+02
735             	3.00217178e+02
736             	3.00217180e+02
737             	3.00217181e+02
738             	3.00217183e+02
739             	3.00217185e+02
740             	3.00217185e+02
741             	3.00217185e+02
742             	3.00217186e+02
743             	3.00217181e+02
744             	3.00217176e+02
745             	3.00217171e+02
746             	3.00217167e+02
747             	3.00217163e+02
748             	3.00217160e+02
749             	3.00217157e+02
750             	3.00217155e+02
751             	3.00217153e+02
752             	3.00217151e+02
753             	3.00217148e+02
754             	3.00217143e+02
755             	3.00217139e+02
756             	3.00217136e+02
757             	3.00217132e+02
758             	3.00217129e+02
759             	3.00217125e+02
760             	3.00217122e+02
761             	3.00217119e+02
762             	3.00217115e+02
763             	3.00217111e+02
764             	3.00217107e+02
765             	3.00217102e+02
766             	3.00217097e+02
767             	3.00217092e+02
768             	3.00217086e+02
769             	3.00217081e+02
770             	3.00217077e+02
771             	3.00217073e+02
772             	3.00217069e+02
773             	3.00217066e+02
774             	3.00217062e+02
775             	3.00217058e+02
776             	3.00217054e+02
777             	3.00217049e+02
778             	3.00217045e+02
779             	3.00217040e+02
780             	3.00217035e+02
781             	3.00217030e+02
782             	3.00217025e+02
783             	3.00217020e+02
784             	3.00217017e+02
785             	3.00217012e+02
786             	3.00217008e+02
787             	3.00217004e+02
788             	3.00217001e+02
789             	3.00216998e+02
790             	3.00216995e+02
791             	3.00216993e+02
792             	3.00216990e+02
793             	3.00216987e+02
794             	3.00216985e+02
795             	3.00216983e+02
796             	3.00216981e+02
797             	3.00216978e+02
798             	3.00216977e+02
799             	3.00216976e+02
800             	3.00216975e+02
801             	3.00216973e+02
802             	3.00216972e+02
803             	3.00216970e+02
804             	3.00216969e+02
805             	3.00216967e+02
806             	3.00216965e+02
807             	3.00216964e+02
808             	3.00216963e+02
809             	3.00216963e+02
810             	3.00216960e+02
811             	3.00216954e+02
812             	3.00216946e+02
813             	3.00216937e+02
814             	3.00216926e+02
815             	3.00216915e+02
816             	3.00216903e+02
817             	3.00216890e+02
818             	3.00216883e+02
819             	3.00216876e+02
820             	3.00216872e+02
821             	3.00216869e+02
822             	3.00216868e+02
823             	3.00216867e+02
824             	3.00216863e+02
825             	3.00216858e+02
826             	3.00216854e+02
827             	3.00216850e+02
828             	3.00216843e+02
829             	3.00216833e+02
830             	3.00216824e+02
831             	3.00216816e+02
832             	3.00216810e+02
833             	3.00216801e+02
834             	3.00216793e+02
835             	3.00216783e+02
836             	3.00216773e+02
837             	3.00216762e+02
838             	3.00216752e+02
839             	3.00216740e+02
840             	3.00216730e+02
841             	3.00216721e+02
842             	3.00216712e+02
843             	3.00216704e+02
844             	3.00216695e+02
845             	3.00216686e+02
846             	3.00216677e+02
847             	3.00216669e+02
848             	3.00216662e+02
849             	3.00216655e+02
850             	3.00216648e+02
851             	3.00216641e+02
852             	3.00216635e+02
853             	3.00216629e+02
854             	3.00216622e+02
855             	3.00216616e+02
856             	3.00216610e+02
857             	3.00216604e+02
858             	3.00216597e+02
859             	3.00216590e+02
860             	3.00216583e+02
861             	3.00216576e+02
862             	3.00216569e+02
863             	3.00216562e+02
864             	3.00216555e+02
865             	3.00216550e+02
866             	3.00216542e+02
867             	3.00216539e+02
868             	3.00216535e+02
869             	3.00216530e+02
870             	3.00216524e+02
871             	3.00216517e+02
872             	3.00216509e+02
873             	3.00216502e+02
874             	3.00216494e+02
875             	3.00216486e+02
876             	3.00216480e+02
877             	3.00216476e+02
878             	3.00216474e+02
879             	3.00216470e+02
880             	3.00216466e+02
881             	3.00216462e+02
882             	3.00216458e+02
883             	3.00216453e+02
884             	3.00216449e+02
885             	3.00216444e+02
886             	3.00216439e+02
887             	3.00216435e+02
888             	3.00216432e+02
889             	3.00216430e+02
890             	3.00216427e+02
891             	3.00216427e+02
892             	3.00216427e+02
893             	3.00216426e+02
894             	3.00216424e+02
895             	3.00216421e+02
896             	3.00216418e+02
897             	3.00216416e+02
898             	3.00216413e+02
899             	3.00216411e+02
900             	3.00216410e+02
901             	3.00216408e+02
902             	3.00216407e+02
903             	3.00216407e+02
904             	3.00216406e+02
905             	3.00216406e+02
906             	3.00216405e+02
907             	3.00216405e+02
908             	3.00216407e+02
909             	3.00216407e+02
910             	3.00216405e+02
911             	3.00216405e+02
912             	3.00216406e+02
913             	3.00216408e+02
914             	3.00216409e+02
915             	3.00216410e+02
916             	3.00216410e+02
917             	3.00216411e+02
918             	3.00216407e+02
919             	3.00216409e+02
920             	3.00216410e+02
921             	3.00216410e+02
922             	3.00216410e+02
923             	3.00216412e+02
924             	3.00216416e+02
925             	3.00216415e+02
926             	3.00216417e+02
927             	3.00216419e+02
928             	3.00216421e+02
929             	3.00216423e+02
930             	3.00216426e+02
931             	3.00216428e+02
932             	3.00216431e+02
933             	3.00216433e+02