# Region        : cellZone pcb
# Cells         : 520
# Volume        : 9.10275158e-01
# Time          	volAverage(T)
1               	3.00008615e+02
2               	3.00024897e+02
3               	3.00047523e+02
4               	3.00075981e+02
5               	3.00108734e+02
6               	3.00145946e+02
7               	3.00187483e+02
8               	3.00233161e+02
9               	3.00283185e+02
10              	3.00337275e+02
11              	3.00395087e+02
12              	3.00457126e+02
13              	3.00522870e+02
14              	3.00591240e+02
15              	3.00663990e+02
16              	3.00738898e+02
17              	3.00816197e+02
18              	3.00895883e+02
19              	3.00977171e+02
20              	3.01060198e+02
21              	3.01145183e+02
22              	3.01232252e+02
23              	3.01320618e+02
24              	3.01411500e+02
25              	3.01503213e+02
26              	3.01598063e+02
27              	3.01695544e+02
28              	3.01795435e+02
29              	3.01898221e+02
30              	3.02003294e+02
31              	3.02109897e+02
32              	3.02218047e+02
33              	3.02328713e+02
34              	3.02439774e+02
35              	3.02550347e+02
36              	3.02660955e+02
37              	3.02771609e+02
38              	3.02882274e+02
39              	3.02994236e+02
40              	3.03107498e+02
41              	3.03222709e+02
42              	3.03338264e+02
43              	3.03454133e+02
44              	3.03570069e+02
45              	3.03685783e+02
46              	3.03803456e+02
47              	3.03922834e+02
48              	3.04042499e+02
49              	3.04163473e+02
50              	3.04285313e+02
51              	3.04407649e+02
52              	3.04530797e+02
53              	3.04653877e+02
54              	3.04775699e+02
55              	3.04897865e+02
56              	3.05018925e+02
57              	3.05138554e+02
58              	3.05255293e+02
59              	3.05372229e+02
60              	3.05490098e+02
61              	3.05609024e+02
62              	3.05727165e+02
63              	3.05845800e+02
64              	3.05965714e+02
65              	3.06086799e+02
66              	3.06207158e+02
67              	3.06327235e+02
68              	3.06446444e+02
69              	3.06565574e+02
70              	3.06684094e+02
71              	3.06801755e+02
72              	3.06919568e+02
73              	3.07036278e+02
74              	3.07153258e+02
75              	3.07269198e+02
76              	3.07382024e+02
77              	3.07493893e+02
78              	3.07604789e+02
79              	3.07715313e+02
80              	3.07826052e+02
81              	3.07937097e+02
82              	3.08048793e+02
83              	3.08161355e+02
84              	3.08274373e+02
85              	3.08388242e+02
86              	3.08502021e+02
87              	3.08614229e+02
88              	3.08725646e+02
89              	3.08834827e+02
90              	3.08942523e+02
91              	3.09049315e+02
92              	3.09155219e+02
93              	3.09259779e+02
94              	3.09362920e+02
95              	3.09464545e+02
96              	3.09565760e+02
97              	3.09666559e+02
98              	3.09767793e+02
99              	3.09868912e+02
100             	3.09970675e+02
101             	3.10070712e+02
102             	3.10169784e+02
103             	3.10268651e+02
104             	3.10366815e+02
105             	3.10464383e+02
106             	3.10561027e+02
107             	3.10657061e+02
108             	3.10752118e+02
109             	3.10845960e+02
110             	3.10938591e+02
111             	3.11029639e+02
112             	3.11118957e+02
113             	3.11206459e+02
114             	3.11292738e+02
115             	3.11377732e+02
116             	3.11461974e+02
117             	3.11545198e+02
118             	3.11627661e+02
119             	3.11709781e+02
120             	3.11791411e+02
121             	3.11872748e+02
122             	3.11953826e+02
123             	3.12034583e+02
124             	3.12114742e+02
125             	3.12194667e+02
126             	3.12273947e+02
127             	3.12352629e+02
128             	3.12430729e+02
129             	3.12508244e+02
130             	3.12585061e+02
131             	3.12660950e+02
132             	3.12735580e+02
133             	3.12808918e+02
134             	3.12881128e+02
135             	3.12952746e+02
136             	3.13023553e+02
137             	3.13093223e+02
138             	3.13161935e+02
139             	3.13229965e+02
140             	3.13297364e+02
141             	3.13364387e+02
142             	3.13430736e+02
143             	3.13496575e+02
144             	3.13561749e+02
145             	3.13626270e+02
146             	3.13690200e+02
147             	3.13753401e+02
148             	3.13815819e+02
149             	3.13877487e+02
150             	3.13938376e+02
151             	3.13998474e+02
152             	3.14057531e+02
153             	3.14115718e+02
154             	3.14172920e+02
155             	3.14229323e+02
156             	3.14285015e+02
157             	3.14340103e+02
158             	3.14394647e+02
159             	3.14448694e+02
160             	3.14502262e+02
161             	3.14555369e+02
162             	3.14608010e+02
163             	3.14660163e+02
164             	3.14711809e+02
165             	3.14762759e+02
166             	3.14813088e+02
167             	3.14862794e+02
168             	3.14911866e+02
169             	3.14960225e+02
170             	3.15007922e+02
171             	3.15055026e+02
172             	3.15101401e+02
173             	3.15147183e+02
174             	3.15192342e+02
175             	3.15236875e+02
176             	3.15280852e+02
177             	3.15324274e+02
178             	3.15367190e+02
179             	3.15409568e+02
180             	3.15451498e+02
181             	3.15493032e+02
182             	3.15534136e+02
183             	3.15574814e+02
184             	3.15615067e+02
185             	3.15654813e+02
186             	3.15694037e+02
187             	3.15732714e+02
188             	3.15770839e+02
189             	3.15808358e+02
190             	3.15845232e+02
191             	3.15881490e+02
192             	3.15917156e+02
193             	3.15952301e+02
194             	3.15986972e+02
195             	3.16021197e+02
196             	3.16054956e+02
197             	3.16088250e+02
198             	3.16121083e+02
199             	3.16153471e+02
200             	3.16185417e+02
201             	3.16216962e+02
202             	3.16248134e+02
203             	3.16278932e+02
204             	3.16309372e+02
205             	3.16339471e+02
206             	3.16369232e+02
207             	3.16398642e+02
208             	3.16427706e+02
209             	3.16456425e+02
210             	3.16484790e+02
211             	3.16512795e+02
212             	3.16540427e+02
213             	3.16567670e+02
214             	3.16594488e+02
215             	3.16620937e+02
216             	3.16647017e+02
217             	3.16672741e+02
218             	3.16698108e+02
219             	3.16723079e+02
220             	3.16747686e+02
221             	3.16771925e+02
222             	3.16795777e+02
223             	3.16819232e+02
224             	3.16842306e+02
225             	3.16865008e+02
226             	3.16887356e+02
227             	3.16909364e+02
228             	3.16931046e+02
229             	3.16952424e+02
230             	3.16973501e+02
231             	3.16994275e+02
232             	3.17014750e+02
233             	3.17034911e+02
234             	3.17054792e+02
235             	3.17074398e+02
236             	3.17093723e+02
237             	3.17112763e+02
238             	3.17131500e+02
239             	3.17149973e+02
240             	3.17168186e+02
241             	3.17186139e+02
242             	3.17203840e+02
243             	3.17221288e+02
244             	3.17238486e+02
245             	3.17255444e+02
246             	3.17272164e+02
247             	3.17288642e+02
248             	3.17304880e+02
249             	3.17320882e+02
250             	3.17336655e+02
251             	3.17352205e+02
252             	3.17367531e+02
253             	3.17382640e+02
254             	3.17397535e+02
255             	3.17412215e+02
256             	3.17426680e+02
257             	3.17440918e+02
258             	3.17454955e+02
259             	3.17468790e+02
260             	3.17482416e+02
261             	3.17495835e+02
262             	3.17509052e+02
263             	3.17522076e+02
264             	3.17534894e+02
265             	3.17547487e+02
266             	3.17559883e+02
267             	3.17572086e+02
268             	3.17584080e+02
269             	3.17595874e+02
270             	3.17607479e+02
271             	3.17618896e+02
272             	3.17630125e+02
273             	3.17641168e+02
274             	3.17652034e+02
275             	3.17662721e+02
276             	3.17673228e+02
277             	3.17683569e+02
278             	3.17693753e+02
279             	3.17703776e+02
280             	3.17713644e+02
281             	3.17723364e+02
282             	3.17732935e+02
283             	3.17742367e+02
284             	3.17751663e+02
285             	3.17760824e+02
286             	3.17769848e+02
287             	3.17778742e+02
288             	3.17787508e+02
289             	3.17796139e+02
290             	3.17804641e+02
291             	3.17813014e+02
292             	3.17821259e+02
293             	3.17829376e+02
294             	3.17837364e+02
295             	3.17845231e+02
296             	3.17852973e+02
297             	3.17860593e+02
298             	3.17868094e+02
299             	3.17875479e+02
300             	3.17882749e+02
301             	3.17889906e+02
302             	3.17896956e+02
303             	3.17903896e+02
304             	3.17910730e+02
305             	3.17917455e+02
306             	3.17924078e+02
307             	3.17930599e+02
308             	3.17937018e+02
309             	3.17943336e+02
310             	3.17949555e+02
311             	3.17955678e+02
312             	3.17961703e+02
313             	3.17967637e+02
314             	3.17973480e+02
315             	3.17979230e+02
316             	3.17984893e+02
317             	3.17990467e+02
318             	3.17995952e+02
319             	3.18001351e+02
320             	3.18006666e+02
321             	3.18011896e+02
322             	3.18017044e+02
323             	3.18022111e+02
324             	3.18027096e+02
325             	3.18032004e+02
326             	3.18036838e+02
327             	3.18041597e+02
328             	3.18046287e+02
329             	3.18050908e+02
330             	3.18055460e+02
331             	3.18059946e+02
332             	3.18064370e+02
333             	3.18068726e+02
334             	3.18073021e+02
335             	3.18077256e+02
336             	3.18081429e+02
337             	3.18085540e+02
338             	3.18089592e+02
339             	3.18093585e+02
340             	3.18097520e+02
341             	3.18101395e+02
342             	3.18105213e+02
343             	3.18108976e+02
344             	3.18112685e+02
345             	3.18116339e+02
346             	3.18119942e+02
347             	3.18123493e+02
348             	3.18126994e+02
349             	3.18130444e+02
350             	3.18133846e+02
351             	3.18137200e+02
352             	3.18140506e+02
353             	3.18143757e+02
354             	3.18146966e+02
355             	3.18150131e+02
356             	3.18153251e+02
357             	3.18156323e+02
358             	3.18159349e+02
359             	3.18162330e+02
360             	3.18165267e+02
361             	3.18168162e+02
362             	3.18171017e+02
363             	3.18173833e+02
364             	3.18176610e+02
365             	3.18179343e+02
366             	3.18182037e+02
367             	3.18184700e+02
368             	3.18187329e+02
369             	3.18189928e+02
370             	3.18192500e+02
371             	3.18195044e+02
372             	3.18197559e+02
373             	3.18200059e+02
374             	3.18202536e+02
375             	3.18204988e+02
376             	3.18207421e+02
377             	3.18209835e+02
378             	3.18212229e+02
379             	3.18214607e+02
380             	3.18216966e+02
381             	3.18219299e+02
382             	3.18221610e+02
383             	3.18223899e+02
384             	3.18226163e+02
385             	3.18228393e+02
386             	3.18230587e+02
387             	3.18232761e+02
388             	3.18234912e+02
389             	3.18237035e+02
390             	3.18239127e+02
391             	3.18241193e+02
392             	3.18243232e+02
393             	3.18245249e+02
394             	3.18247242e+02
395             	3.18249213e+02
396             	3.18251165e+02
397             	3.18253100e+02
398             	3.18255020e+02
399             	3.18256923e+02
400             	3.18258810e+02
401             	3.18260680e+02
402             	3.18262535e+02
403             	3.18264378e+02
404             	3.18266210e+02
405             	3.18268030e+02
406             	3.18269843e+02
407             	3.18271648e+02
408             	3.18273443e+02
409             	3.18275231e+02
410             	3.18277013e+02
411             	3.18278789e+02
412             	3.18280556e+02
413             	3.18282317e+02
414             	3.18284069e+02
415             	3.18285815e+02
416             	3.18287556e+02
417             	3.18289294e+02
418             	3.18291027e+02
419             	3.18292757e+02
420             	3.18294482e+02
421             	3.18296204e+02
422             	3.18297922e+02
423             	3.18299634e+02
424             	3.18301340e+02
425             	3.18303033e+02
426             	3.18304719e+02
427             	3.18306395e+02
428             	3.18308062e+02
429             	3.18309721e+02
430             	3.18311372e+02
431             	3.18313017e+02
432             	3.18314656e+02
433             	3.18316292e+02
434             	3.18317927e+02
435             	3.18319560e+02
436             	3.18321194e+02
437             	3.18322825e+02
438             	3.18324454e+02
439             	3.18326083e+02
440             	3.18327712e+02
441             	3.18329327e+02
442             	3.18330942e+02
443             	3.18332555e+02
444             	3.18334164e+02
445             	3.18335766e+02
446             	3.18337365e+02
447             	3.18338962e+02
448             	3.18340554e+02
449             	3.18342139e+02
450             	3.18343722e+02
451             	3.18345302e+02
452             	3.18346879e+02
453             	3.18348456e+02
454             	3.18350050e+02
455             	3.18351643e+02
456             	3.18353238e+02
457             	3.18354842e+02
458             	3.18356458e+02
459             	3.18358082e+02
460             	3.18359715e+02
461             	3.18361361e+02
462             	3.18363015e+02
463             	3.18364677e+02
464             	3.18366346e+02
465             	3.18368021e+02
466             	3.18369706e+02
467             	3.18371404e+02
468             	3.18373111e+02
469             	3.18374821e+02
470             	3.18376541e+02
471             	3.18378265e+02
472             	3.18379992e+02
473             	3.18381712e+02
474             	3.18383426e+02
475             	3.18385128e+02
476             	3.18386819e+02
477             	3.18388508e+02
478             	3.18390187e+02
479             	3.18391865e+02
480             	3.18393538e+02
481             	3.18395216e+02
482             	3.18396901e+02
483             	3.18398592e+02
484             	3.18400293e+02
485             	3.18402004e+02
486             	3.18403724e+02
487             	3.18405454e+02
488             	3.18407197e+02
489             	3.18408959e+02
490             	3.18410730e+02
491             	3.18412511e+02
492             	3.18414307e+02
493             	3.18416123e+02
494             	3.18417949e+02
495             	3.18419782e+02
496             	3.18421618e+02
497             	3.18423452e+02
498             	3.18425296e+02
499             	3.18427124e+02
500             	3.18428960e+02
501             	3.18430797e+02
502             	3.18432636e+02
503             	3.18434482e+02
504             	3.18436326e+02
505             	3.18438171e+02
506             	3.18440012e+02
507             	3.18441852e+02
508             	3.18443695e+02
509             	3.18445540e+02
510             	3.18447385e+02
511             	3.18449238e+02
512             	3.18451103e+02
513             	3.18452977e+02
514             	3.18454862e+02
515             	3.18456775e+02
516             	3.18458693e+02
517             	3.18460630e+02
518             	3.18462584e+02
519             	3.18464555e+02
520             	3.18466545e+02
521             	3.18468560e+02
522             	3.18470592e+02
523             	3.18472636e+02
524             	3.18474698e+02
525             	3.18476770e+02
526             	3.18478845e+02
527             	3.18480913e+02
528             	3.18482973e+02
529             	3.18485016e+02
530             	3.18487055e+02
531             	3.18489086e+02
532             	3.18491114e+02
533             	3.18493150e+02
534             	3.18495188e+02
535             	3.18497227e+02
536             	3.18499273e+02
537             	3.18501333e+02
538             	3.18503411e+02
539             	3.18505498e+02
540             	3.18507606e+02
541             	3.18509722e+02
542             	3.18511854e+02
543             	3.18513997e+02
544             	3.18516155e+02
545             	3.18518341e+02
546             	3.18520543e+02
547             	3.18522753e+02
548             	3.18524981e+02
549             	3.18527226e+02
550             	3.18529484e+02
551             	3.18531741e+02
552             	3.18534001e+02
553             	3.18536257e+02
554             	3.18538517e+02
555             	3.18540771e+02
556             	3.18543023e+02
557             	3.18545265e+02
558             	3.18547513e+02
559             	3.18549764e+02
560             	3.18552011e+02
561             	3.18554260e+02
562             	3.18556515e+02
563             	3.18558771e+02
564             	3.18561032e+02
565             	3.18563303e+02
566             	3.18565582e+02
567             	3.18567870e+02
568             	3.18570171e+02
569             	3.18572487e+02
570             	3.18574822e+02
571             	3.18577181e+02
572             	3.18579556e+02
573             	3.18581948e+02
574             	3.18584362e+02
575             	3.18586797e+02
576             	3.18589248e+02
577             	3.18591704e+02
578             	3.18594172e+02
579             	3.18596650e+02
580             	3.18599130e+02
581             	3.18601599e+02
582             	3.18604075e+02
583             	3.18606553e+02
584             	3.18609033e+02
585             	3.18611517e+02
586             	3.18614006e+02
587             	3.18616504e+02
588             	3.18619006e+02
589             	3.18621517e+02
590             	3.18624034e+02
591             	3.18626557e+02
592             	3.18629092e+02
593             	3.18631636e+02
594             	3.18634184e+02
595             	3.18636735e+02
596             	3.18639293e+02
597             	3.18641848e+02
598             	3.18644410e+02
599             	3.18646977e+02
600             	3.18649549e+02
601             	3.18652140e+02
602             	3.18654753e+02
603             	3.18657374e+02
604             	3.18659999e+02
605             	3.18662630e+02
606             	3.18665273e+02
607             	3.18667935e+02
608             	3.18670613e+02
609             	3.18673294e+02
610             	3.18675988e+02
611             	3.18678692e+02
612             	3.18681403e+02
613             	3.18684119e+02
614             	3.18686843e+02
615             	3.18689574e+02
616             	3.18692315e+02
617             	3.18695066e+02
618             	3.18697824e+02
619             	3.18700590e+02
620             	3.18703365e+02
621             	3.18706149e+02
622             	3.18708941e+02
623             	3.18711743e+02
624             	3.18714554e+02
625             	3.18717374e+02
626             	3.18720204e+02
627             	3.18723041e+02
628             	3.18725885e+02
629             	3.18728735e+02
630             	3.18731592e+02
631             	3.18734453e+02
632             	3.18737317e+02
633             	3.18740187e+02
634             	3.18743059e+02
635             	3.18745939e+02
636             	3.18748823e+02
637             	3.18751711e+02
638             	3.18754597e+02
639             	3.18757485e+02
640             	3.18760376e+02
641             	3.18763271e+02
642             	3.18766170e+02
643             	3.18769075e+02
644             	3.18771987e+02
645             	3.18774904e+02
646             	3.18777830e+02
647             	3.18780765e+02
648             	3.18783710e+02
649             	3.18786662e+02
650             	3.18789624e+02
651             	3.18792594e+02
652             	3.18795572e+02
653             	3.18798562e+02
654             	3.18801556e+02
655             	3.18804554e+02
656             	3.18807559e+02
657             	3.18810575e+02
658             	3.18813597e+02
659             	3.18816624e+02
660             	3.18819659e+02
661             	3.18822698e+02
662             	3.18825750e+02
663             	3.18828812e+02
664             	3.18831883e+02
665             	3.18834962e+02
666             	3.18838049e+02
667             	3.18841144e+02
668             	3.18844246e+02
669             	3.18847355e+02
670             	3.18850472e+02
671             	3.18853596e+02
672             	3.18856726e+02
673             	3.18859861e+02
674             	3.18863003e+02
675             	3.18866150e+02
676             	3.18869304e+02
677             	3.18872463e+02
678             	3.18875629e+02
679             	3.18878800e+02
680             	3.18881978e+02
681             	3.18885162e+02
682             	3.18888353e+02
683             	3.18891553e+02
684             	3.18894758e+02
685             	3.18897981e+02
686             	3.18901166e+02
687             	3.18904340e+02
688             	3.18907513e+02
689             	3.18910715e+02
690             	3.18913926e+02
691             	3.18917151e+02
692             	3.18920328e+02
693             	3.18923486e+02
694             	3.18926638e+02
695             	3.18929822e+02
696             	3.18933020e+02
697             	3.18936230e+02
698             	3.18939455e+02
699             	3.18942699e+02
700             	3.18945905e+02
701             	3.18949108e+02
702             	3.18952311e+02
703             	3.18955564e+02
704             	3.18958846e+02
705             	3.18962167e+02
706             	3.18965450e+02
707             	3.18968731e+02
708             	3.18972016e+02
709             	3.18975355e+02
710             	3.18978719e+02
711             	3.18982111e+02
712             	3.18985465e+02
713             	3.18988812e+02
714             	3.18992157e+02
715             	3.18995531e+02
716             	3.18998934e+02
717             	3.19002292e+02
718             	3.19005637e+02
719             	3.19008969e+02
720             	3.19012322e+02
721             	3.19015689e+02
722             	3.19019003e+02
723             	3.19022300e+02
724             	3.19025584e+02
725             	3.19028912e+02
726             	3.19032274e+02
727             	3.19035588e+02
728             	3.19038895e+02
729             	3.19042200e+02
730             	3.19045553e+02
731             	3.19048951e+02
732             	3.19052322e+02
733             	3.19055703e+02
734             	3.19059090e+02
735             	3.19062520e+02
736             	3.19065976e+02
737             	3.19069390e+02
738             	3.19072799e+02
739             	3.19076208e+02
740             	3.19079657e+02
741             	3.19083132e+02
742             	3.19086567e+02
743             	3.19089999e+02
744             	3.19093430e+02
745             	3.19096923e+02
746             	3.19100382e+02
747             	3.19103842e+02
748             	3.19107301e+02
749             	3.19110831e+02
750             	3.19114314e+02
751             	3.19117792e+02
752             	3.19121267e+02
753             	3.19124796e+02
754             	3.19128286e+02
755             	3.19131774e+02
756             	3.19135260e+02
757             	3.19138768e+02
758             	3.19142299e+02
759             	3.19145786e+02
760             	3.19149263e+02
761             	3.19152732e+02
762             	3.19156250e+02
763             	3.19159713e+02
764             	3.19163180e+02
765             	3.19166636e+02
766             	3.19170138e+02
767             	3.19173594e+02
768             	3.19177050e+02
769             	3.19180511e+02
770             	3.19184036e+02
771             	3.19187527e+02
772             	3.19191026e+02
773             	3.19194539e+02
774             	3.19198116e+02
775             	3.19201659e+02
776             	3.19205211e+02
777             	3.19208769e+02
778             	3.19212394e+02
779             	3.19215979e+02
780             	3.19219571e+02
781             	3.19223185e+02
782             	3.19226871e+02
783             	3.19230525e+02
784             	3.19234189e+02
785             	3.19237848e+02
786             	3.19241552e+02
787             	3.19245275e+02
788             	3.19248952e+02
789             	3.19252607e+02
790             	3.19256244e+02
791             	3.19259917e+02
792             	3.19263520e+02
793             	3.19267108e+02
794             	3.19270692e+02
795             	3.19274322e+02
796             	3.19277898e+02
797             	3.19281466e+02
798             	3.19285038e+02
799             	3.19288662e+02
800             	3.19292248e+02
801             	3.19295836e+02
802             	3.19299433e+02
803             	3.19303088e+02
804             	3.19306720e+02
805             	3.19310359e+02
806             	3.19314011e+02
807             	3.19317725e+02
808             	3.19321406e+02
809             	3.19325096e+02
810             	3.19328806e+02
811             	3.19332575e+02
812             	3.19336318e+02
813             	3.19340069e+02
814             	3.19343837e+02
815             	3.19347661e+02
816             	3.19351449e+02
817             	3.19355221e+02
818             	3.19358998e+02
819             	3.19362817e+02
820             	3.19366585e+02
821             	3.19370334e+02
822             	3.19374083e+02
823             	3.19377865e+02
824             	3.19381593e+02
825             	3.19385308e+02
826             	3.19389029e+02
827             	3.19392789e+02
828             	3.19396506e+02
829             	3.19400219e+02
830             	3.19403939e+02
831             	3.19407703e+02
832             	3.19411433e+02
833             	3.19415158e+02
834             	3.19418898e+02
835             	3.19422682e+02
836             	3.19426430e+02
837             	3.19430179e+02
838             	3.19433949e+02
839             	3.19437767e+02
840             	3.19441554e+02
841             	3.19445348e+02
842             	3.19449168e+02
843             	3.19453039e+02
844             	3.19456879e+02
845             	3.19460726e+02
846             	3.19464593e+02
847             	3.19468506e+02
848             	3.19472381e+02
849             	3.19476258e+02
850             	3.19480170e+02
851             	3.19484138e+02
852             	3.19488075e+02
853             	3.19492017e+02
854             	3.19495993e+02
855             	3.19499948e+02
856             	3.19503912e+02
857             	3.19507921e+02
858             	3.19511890e+02
859             	3.19515855e+02
860             	3.19519849e+02
861             	3.19523798e+02
862             	3.19527723e+02
863             	3.19531676e+02
864             	3.19535588e+02
865             	3.19539493e+02
866             	3.19543428e+02
867             	3.19547327e+02
868             	3.19551227e+02
869             	3.19555173e+02
870             	3.19559084e+02
871             	3.19563002e+02
872             	3.19566969e+02
873             	3.19570910e+02
874             	3.19574860e+02
875             	3.19578858e+02
876             	3.19582827e+02
877             	3.19586807e+02
878             	3.19590835e+02
879             	3.19594850e+02
880             	3.19598880e+02
881             	3.19602960e+02
882             	3.19607011e+02
883             	3.19611074e+02
884             	3.19615188e+02
885             	3.19619275e+02
886             	3.19623363e+02
887             	3.19627500e+02
888             	3.19631607e+02
889             	3.19635721e+02
890             	3.19639878e+02
891             	3.19644001e+02
892             	3.19648128e+02
893             	3.19652283e+02
894             	3.19656399e+02
895             	3.19660510e+02
896             	3.19664654e+02
897             	3.19668749e+02
898             	3.19672831e+02
899             	3.19676946e+02
900             	3.19681030e+02
901             	3.19685106e+02
902             	3.19689216e+02
903             	3.19693294e+02
904             	3.19697377e+02
905             	3.19701508e+02
906             	3.19705617e+02
907             	3.19709735e+02
908             	3.19713907e+02
909             	3.19718059e+02
910             	3.19722216e+02
911             	3.19726419e+02
912             	3.19730604e+02
913             	3.19734795e+02
914             	3.19739033e+02
915             	3.19743246e+02
916             	3.19747476e+02
917             	3.19751753e+02
918             	3.19755998e+02
919             	3.19760248e+02
920             	3.19764545e+02
921             	3.19768814e+02
922             	3.19773089e+02
923             	3.19777414e+02
924             	3.19781711e+02
925             	3.19786008e+02
926             	3.19790353e+02
927             	3.19794665e+02
928             	3.19798973e+02
929             	3.19803307e+02
930             	3.19807613e+02
931             	3.19811914e+02
932             	3.19816253e+02
933             	3.19820542e+02