# Region        : cellZone pcb
# Cells         : 806
# Volume        : 1.54038913e+00
# Time          	volAverage(T)
1               	3.00017453e+02
2               	3.00050393e+02
3               	3.00095392e+02
4               	3.00152141e+02
5               	3.00217696e+02
6               	3.00292817e+02
7               	3.00376460e+02
8               	3.00468301e+02
9               	3.00567551e+02
10              	3.00674084e+02
11              	3.00788116e+02
12              	3.00905855e+02
13              	3.01028873e+02
14              	3.01157961e+02
15              	3.01292823e+02
16              	3.01432809e+02
17              	3.01577435e+02
18              	3.01726369e+02
19              	3.01879590e+02
20              	3.02034702e+02
21              	3.02194433e+02
22              	3.02356625e+02
23              	3.02521939e+02
24              	3.02689464e+02
25              	3.02860931e+02
26              	3.03035154e+02
27              	3.03212165e+02
28              	3.03391926e+02
29              	3.03572746e+02
30              	3.03755220e+02
31              	3.03938894e+02
32              	3.04123138e+02
33              	3.04310464e+02
34              	3.04496741e+02
35              	3.04685729e+02
36              	3.04878883e+02
37              	3.05072395e+02
38              	3.05266653e+02
39              	3.05461814e+02
40              	3.05658737e+02
41              	3.05856808e+02
42              	3.06052810e+02
43              	3.06246177e+02
44              	3.06442446e+02
45              	3.06638985e+02
46              	3.06831860e+02
47              	3.07020901e+02
48              	3.07212880e+02
49              	3.07405917e+02
50              	3.07598512e+02
51              	3.07792218e+02
52              	3.07986798e+02
53              	3.08181319e+02
54              	3.08374814e+02
55              	3.08567098e+02
56              	3.08757399e+02
57              	3.08945418e+02
58              	3.09133653e+02
59              	3.09323247e+02
60              	3.09513516e+02
61              	3.09703222e+02
62              	3.09890961e+02
63              	3.10075867e+02
64              	3.10257673e+02
65              	3.10438908e+02
66              	3.10620251e+02
67              	3.10799300e+02
68              	3.10977105e+02
69              	3.11157002e+02
70              	3.11331417e+02
71              	3.11506179e+02
72              	3.11679373e+02
73              	3.11850614e+02
74              	3.12021626e+02
75              	3.12190993e+02
76              	3.12359915e+02
77              	3.12527713e+02
78              	3.12694547e+02
79              	3.12858846e+02
80              	3.13024497e+02
81              	3.13185807e+02
82              	3.13348372e+02
83              	3.13509317e+02
84              	3.13671258e+02
85              	3.13830914e+02
86              	3.13990380e+02
87              	3.14147140e+02
88              	3.14303574e+02
89              	3.14459565e+02
90              	3.14615606e+02
91              	3.14768108e+02
92              	3.14920204e+02
93              	3.15068867e+02
94              	3.15217886e+02
95              	3.15365119e+02
96              	3.15511364e+02
97              	3.15657971e+02
98              	3.15804337e+02
99              	3.15949774e+02
100             	3.16094914e+02
101             	3.16238899e+02
102             	3.16380772e+02
103             	3.16520766e+02
104             	3.16659753e+02
105             	3.16798458e+02
106             	3.16934911e+02
107             	3.17070460e+02
108             	3.17205975e+02
109             	3.17341948e+02
110             	3.17478099e+02
111             	3.17613847e+02
112             	3.17747466e+02
113             	3.17879340e+02
114             	3.18010222e+02
115             	3.18140678e+02
116             	3.18270246e+02
117             	3.18398497e+02
118             	3.18526325e+02
119             	3.18654190e+02
120             	3.18781486e+02
121             	3.18905834e+02
122             	3.19029105e+02
123             	3.19150964e+02
124             	3.19271481e+02
125             	3.19390748e+02
126             	3.19508733e+02
127             	3.19626577e+02
128             	3.19744710e+02
129             	3.19862522e+02
130             	3.19979996e+02
131             	3.20096983e+02
132             	3.20213452e+02
133             	3.20328976e+02
134             	3.20443386e+02
135             	3.20556598e+02
136             	3.20668641e+02
137             	3.20779455e+02
138             	3.20890274e+02
139             	3.21000613e+02
140             	3.21110284e+02
141             	3.21219239e+02
142             	3.21327129e+02
143             	3.21434102e+02
144             	3.21539919e+02
145             	3.21644359e+02
146             	3.21748449e+02
147             	3.21850795e+02
148             	3.21952207e+02
149             	3.22052783e+02
150             	3.22153391e+02
151             	3.22253504e+02
152             	3.22353772e+02
153             	3.22453429e+02
154             	3.22551918e+02
155             	3.22649204e+02
156             	3.22745397e+02
157             	3.22840701e+02
158             	3.22935845e+02
159             	3.23029954e+02
160             	3.23123493e+02
161             	3.23216965e+02
162             	3.23309792e+02
163             	3.23401680e+02
164             	3.23492790e+02
165             	3.23584140e+02
166             	3.23674916e+02
167             	3.23764889e+02
168             	3.23853891e+02
169             	3.23942176e+02
170             	3.24028992e+02
171             	3.24114794e+02
172             	3.24199632e+02
173             	3.24283149e+02
174             	3.24366356e+02
175             	3.24449754e+02
176             	3.24532687e+02
177             	3.24615368e+02
178             	3.24697603e+02
179             	3.24779578e+02
180             	3.24860791e+02
181             	3.24941080e+02
182             	3.25021280e+02
183             	3.25101079e+02
184             	3.25180341e+02
185             	3.25258689e+02
186             	3.25336727e+02
187             	3.25414655e+02
188             	3.25491632e+02
189             	3.25568369e+02
190             	3.25643754e+02
191             	3.25716861e+02
192             	3.25789787e+02
193             	3.25861409e+02
194             	3.25932200e+02
195             	3.26003162e+02
196             	3.26074368e+02
197             	3.26144885e+02
198             	3.26215063e+02
199             	3.26284669e+02
200             	3.26353723e+02
201             	3.26422814e+02
202             	3.26490883e+02
203             	3.26558427e+02
204             	3.26625729e+02
205             	3.26692687e+02
206             	3.26759035e+02
207             	3.26824753e+02
208             	3.26890001e+02
209             	3.26954891e+02
210             	3.27019840e+02
211             	3.27083654e+02
212             	3.27147404e+02
213             	3.27210679e+02
214             	3.27273587e+02
215             	3.27335944e+02
216             	3.27397698e+02
217             	3.27459156e+02
218             	3.27519949e+02
219             	3.27580488e+02
220             	3.27640897e+02
221             	3.27701210e+02
222             	3.27761030e+02
223             	3.27819837e+02
224             	3.27878060e+02
225             	3.27936785e+02
226             	3.27994980e+02
227             	3.28052817e+02
228             	3.28110121e+02
229             	3.28166815e+02
230             	3.28222521e+02
231             	3.28277811e+02
232             	3.28332380e+02
233             	3.28386550e+02
234             	3.28440248e+02
235             	3.28493601e+02
236             	3.28546902e+02
237             	3.28599897e+02
238             	3.28652826e+02
239             	3.28705883e+02
240             	3.28759102e+02
241             	3.28812575e+02
242             	3.28866034e+02
243             	3.28919067e+02
244             	3.28971798e+02
245             	3.29024397e+02
246             	3.29076827e+02
247             	3.29128347e+02
248             	3.29179153e+02
249             	3.29228833e+02
250             	3.29278423e+02
251             	3.29327102e+02
252             	3.29375259e+02
253             	3.29422895e+02
254             	3.29469884e+02
255             	3.29516432e+02
256             	3.29562540e+02
257             	3.29608318e+02
258             	3.29653737e+02
259             	3.29698908e+02
260             	3.29744283e+02
261             	3.29789361e+02
262             	3.29834331e+02
263             	3.29879165e+02
264             	3.29924208e+02
265             	3.29968884e+02
266             	3.30013202e+02
267             	3.30057331e+02
268             	3.30101140e+02
269             	3.30144721e+02
270             	3.30188045e+02
271             	3.30231130e+02
272             	3.30274042e+02
273             	3.30316666e+02
274             	3.30358991e+02
275             	3.30401026e+02
276             	3.30442768e+02
277             	3.30484252e+02
278             	3.30525464e+02
279             	3.30566382e+02
280             	3.30607224e+02
281             	3.30647860e+02
282             	3.30688354e+02
283             	3.30728560e+02
284             	3.30768380e+02
285             	3.30808060e+02
286             	3.30847451e+02
287             	3.30886671e+02
288             	3.30925646e+02
289             	3.30964390e+02
290             	3.31002969e+02
291             	3.31041372e+02
292             	3.31079475e+02
293             	3.31117316e+02
294             	3.31154802e+02
295             	3.31191940e+02
296             	3.31228726e+02
297             	3.31265102e+02
298             	3.31301162e+02
299             	3.31337248e+02
300             	3.31372995e+02
301             	3.31408564e+02
302             	3.31444027e+02
303             	3.31479431e+02
304             	3.31514849e+02
305             	3.31550061e+02
306             	3.31585278e+02
307             	3.31620269e+02
308             	3.31655167e+02
309             	3.31689882e+02
310             	3.31724412e+02
311             	3.31758690e+02
312             	3.31792185e+02
313             	3.31825972e+02
314             	3.31859229e+02
315             	3.31892267e+02
316             	3.31925009e+02
317             	3.31957426e+02
318             	3.31989587e+02
319             	3.32021518e+02
320             	3.32053163e+02
321             	3.32084678e+02
322             	3.32116113e+02
323             	3.32147136e+02
324             	3.32178150e+02
325             	3.32208917e+02
326             	3.32239541e+02
327             	3.32269832e+02
328             	3.32299806e+02
329             	3.32330155e+02
330             	3.32360372e+02
331             	3.32390496e+02
332             	3.32420450e+02
333             	3.32450092e+02
334             	3.32479585e+02
335             	3.32508921e+02
336             	3.32538156e+02
337             	3.32567138e+02
338             	3.32596139e+02
339             	3.32625064e+02
340             	3.32653930e+02
341             	3.32682556e+02
342             	3.32710862e+02
343             	3.32738377e+02
344             	3.32766176e+02
345             	3.32793384e+02
346             	3.32820316e+02
347             	3.32846945e+02
348             	3.32873636e+02
349             	3.32900146e+02
350             	3.32926513e+02
351             	3.32952814e+02
352             	3.32979009e+02
353             	3.33005102e+02
354             	3.33031002e+02
355             	3.33056658e+02
356             	3.33082210e+02
357             	3.33107641e+02
358             	3.33132873e+02
359             	3.33157760e+02
360             	3.33182849e+02
361             	3.33207777e+02
362             	3.33232480e+02
363             	3.33257015e+02
364             	3.33281328e+02
365             	3.33305379e+02
366             	3.33329176e+02
367             	3.33352729e+02
368             	3.33376081e+02
369             	3.33399366e+02
370             	3.33422656e+02
371             	3.33446094e+02
372             	3.33469633e+02
373             	3.33493247e+02
374             	3.33516994e+02
375             	3.33540919e+02
376             	3.33564811e+02
377             	3.33588367e+02
378             	3.33611481e+02
379             	3.33634245e+02
380             	3.33656675e+02
381             	3.33678847e+02
382             	3.33700751e+02
383             	3.33722397e+02
384             	3.33743697e+02
385             	3.33764679e+02
386             	3.33785751e+02
387             	3.33806588e+02
388             	3.33827339e+02
389             	3.33848075e+02
390             	3.33868771e+02
391             	3.33889460e+02
392             	3.33910121e+02
393             	3.33930777e+02
394             	3.33951382e+02
395             	3.33971912e+02
396             	3.33992337e+02
397             	3.34012639e+02
398             	3.34032765e+02
399             	3.34052746e+02
400             	3.34072465e+02
401             	3.34092013e+02
402             	3.34111374e+02
403             	3.34130696e+02
404             	3.34149801e+02
405             	3.34168841e+02
406             	3.34187763e+02
407             	3.34206577e+02
408             	3.34225257e+02
409             	3.34243807e+02
410             	3.34262219e+02
411             	3.34280498e+02
412             	3.34298648e+02
413             	3.34316675e+02
414             	3.34334597e+02
415             	3.34352419e+02
416             	3.34370049e+02
417             	3.34387621e+02
418             	3.34405118e+02
419             	3.34422564e+02
420             	3.34439941e+02
421             	3.34457243e+02
422             	3.34474472e+02
423             	3.34491635e+02
424             	3.34508801e+02
425             	3.34525735e+02
426             	3.34542579e+02
427             	3.34559262e+02
428             	3.34575793e+02
429             	3.34592154e+02
430             	3.34608337e+02
431             	3.34624350e+02
432             	3.34640211e+02
433             	3.34655946e+02
434             	3.34671586e+02
435             	3.34687089e+02
436             	3.34702534e+02
437             	3.34717935e+02
438             	3.34733311e+02
439             	3.34748718e+02
440             	3.34764227e+02
441             	3.34779920e+02
442             	3.34795702e+02
443             	3.34811346e+02
444             	3.34826719e+02
445             	3.34841828e+02
446             	3.34856741e+02
447             	3.34871512e+02
448             	3.34886163e+02
449             	3.34900662e+02
450             	3.34915013e+02
451             	3.34929229e+02
452             	3.34943289e+02
453             	3.34957194e+02
454             	3.34970955e+02
455             	3.34984576e+02
456             	3.34998071e+02
457             	3.35011475e+02
458             	3.35024818e+02
459             	3.35038147e+02
460             	3.35051466e+02
461             	3.35064793e+02
462             	3.35078136e+02
463             	3.35091481e+02
464             	3.35104836e+02
465             	3.35118151e+02
466             	3.35131410e+02
467             	3.35144602e+02
468             	3.35157723e+02
469             	3.35170773e+02
470             	3.35183756e+02
471             	3.35196610e+02
472             	3.35209399e+02
473             	3.35222065e+02
474             	3.35234631e+02
475             	3.35247056e+02
476             	3.35259347e+02
477             	3.35271517e+02
478             	3.35283579e+02
479             	3.35295536e+02
480             	3.35307404e+02
481             	3.35319196e+02
482             	3.35330917e+02
483             	3.35342590e+02
484             	3.35354234e+02
485             	3.35365879e+02
486             	3.35377571e+02
487             	3.35389462e+02
488             	3.35401330e+02
489             	3.35413123e+02
490             	3.35424802e+02
491             	3.35436435e+02
492             	3.35448015e+02
493             	3.35459513e+02
494             	3.35470851e+02
495             	3.35481952e+02
496             	3.35492828e+02
497             	3.35503556e+02
498             	3.35514140e+02
499             	3.35524640e+02
500             	3.35535085e+02
501             	3.35545466e+02
502             	3.35555780e+02
503             	3.35566095e+02
504             	3.35576271e+02
505             	3.35586425e+02
506             	3.35596511e+02
507             	3.35606589e+02
508             	3.35616606e+02
509             	3.35626565e+02
510             	3.35636498e+02
511             	3.35646370e+02
512             	3.35656184e+02
513             	3.35665965e+02
514             	3.35675665e+02
515             	3.35685325e+02
516             	3.35694955e+02
517             	3.35704557e+02
518             	3.35714118e+02
519             	3.35723640e+02
520             	3.35733109e+02
521             	3.35742536e+02
522             	3.35751925e+02
523             	3.35761279e+02
524             	3.35770600e+02
525             	3.35779884e+02
526             	3.35789144e+02
527             	3.35798376e+02
528             	3.35807657e+02
529             	3.35816860e+02
530             	3.35826150e+02
531             	3.35835502e+02
532             	3.35844873e+02
533             	3.35854128e+02
534             	3.35863174e+02
535             	3.35872013e+02
536             	3.35880548e+02
537             	3.35888843e+02
538             	3.35897017e+02
539             	3.35905101e+02
540             	3.35913173e+02
541             	3.35921248e+02
542             	3.35929337e+02
543             	3.35937469e+02
544             	3.35945562e+02
545             	3.35953750e+02
546             	3.35961918e+02
547             	3.35970182e+02
548             	3.35978451e+02
549             	3.35986663e+02
550             	3.35994695e+02
551             	3.36002546e+02
552             	3.36010285e+02
553             	3.36017918e+02
554             	3.36025484e+02
555             	3.36032986e+02
556             	3.36040451e+02
557             	3.36047931e+02
558             	3.36055389e+02
559             	3.36062879e+02
560             	3.36070444e+02
561             	3.36078064e+02
562             	3.36085751e+02
563             	3.36093327e+02
564             	3.36100820e+02
565             	3.36108231e+02
566             	3.36115697e+02
567             	3.36122967e+02
568             	3.36130038e+02
569             	3.36137006e+02
570             	3.36143915e+02
571             	3.36150778e+02
572             	3.36157625e+02
573             	3.36164488e+02
574             	3.36171416e+02
575             	3.36178416e+02
576             	3.36185469e+02
577             	3.36192549e+02
578             	3.36199623e+02
579             	3.36206693e+02
580             	3.36213619e+02
581             	3.36220604e+02
582             	3.36227595e+02
583             	3.36234600e+02
584             	3.36241520e+02
585             	3.36248239e+02
586             	3.36254695e+02
587             	3.36260943e+02
588             	3.36267056e+02
589             	3.36273079e+02
590             	3.36279038e+02
591             	3.36284974e+02
592             	3.36290902e+02
593             	3.36296858e+02
594             	3.36302842e+02
595             	3.36308842e+02
596             	3.36314852e+02
597             	3.36320877e+02
598             	3.36326925e+02
599             	3.36333007e+02
600             	3.36339106e+02
601             	3.36345179e+02
602             	3.36351196e+02
603             	3.36357100e+02
604             	3.36362902e+02
605             	3.36368627e+02
606             	3.36374283e+02
607             	3.36379869e+02
608             	3.36385402e+02
609             	3.36390890e+02
610             	3.36396354e+02
611             	3.36401791e+02
612             	3.36407208e+02
613             	3.36412610e+02
614             	3.36418012e+02
615             	3.36423453e+02
616             	3.36428886e+02
617             	3.36434318e+02
618             	3.36439760e+02
619             	3.36445156e+02
620             	3.36450552e+02
621             	3.36455942e+02
622             	3.36461332e+02
623             	3.36466744e+02
624             	3.36472073e+02
625             	3.36477322e+02
626             	3.36482491e+02
627             	3.36487597e+02
628             	3.36492658e+02
629             	3.36497682e+02
630             	3.36502684e+02
631             	3.36507665e+02
632             	3.36512631e+02
633             	3.36517576e+02
634             	3.36522498e+02
635             	3.36527403e+02
636             	3.36532268e+02
637             	3.36537091e+02
638             	3.36541883e+02
639             	3.36546649e+02
640             	3.36551400e+02
641             	3.36556140e+02
642             	3.36560873e+02
643             	3.36565601e+02
644             	3.36570322e+02
645             	3.36575031e+02
646             	3.36579710e+02
647             	3.36584347e+02
648             	3.36588932e+02
649             	3.36593457e+02
650             	3.36597926e+02
651             	3.36602342e+02
652             	3.36606712e+02
653             	3.36611055e+02
654             	3.36615371e+02
655             	3.36619662e+02
656             	3.36623923e+02
657             	3.36628153e+02
658             	3.36632353e+02
659             	3.36636522e+02
660             	3.36640667e+02
661             	3.36644789e+02
662             	3.36648894e+02
663             	3.36652990e+02
664             	3.36657062e+02
665             	3.36661126e+02
666             	3.36665175e+02
667             	3.36669209e+02
668             	3.36673225e+02
669             	3.36677207e+02
670             	3.36681160e+02
671             	3.36685090e+02
672             	3.36689004e+02
673             	3.36692906e+02
674             	3.36696801e+02
675             	3.36700689e+02
676             	3.36704576e+02
677             	3.36708459e+02
678             	3.36712332e+02
679             	3.36716196e+02
680             	3.36720058e+02
681             	3.36723893e+02
682             	3.36727707e+02
683             	3.36731494e+02
684             	3.36735257e+02
685             	3.36738994e+02
686             	3.36742706e+02
687             	3.36746390e+02
688             	3.36750040e+02
689             	3.36753656e+02
690             	3.36757240e+02
691             	3.36760796e+02
692             	3.36764325e+02
693             	3.36767836e+02
694             	3.36771331e+02
695             	3.36774835e+02
696             	3.36778321e+02
697             	3.36781785e+02
698             	3.36785232e+02
699             	3.36788653e+02
700             	3.36792044e+02
701             	3.36795413e+02
702             	3.36798766e+02
703             	3.36802101e+02
704             	3.36805410e+02
705             	3.36808702e+02
706             	3.36811979e+02
707             	3.36815243e+02
708             	3.36818491e+02
709             	3.36821728e+02
710             	3.36824928e+02
711             	3.36828099e+02
712             	3.36831232e+02
713             	3.36834334e+02
714             	3.36837413e+02
715             	3.36840466e+02
716             	3.36843504e+02
717             	3.36846530e+02
718             	3.36849542e+02
719             	3.36852539e+02
720             	3.36855522e+02
721             	3.36858492e+02
722             	3.36861451e+02
723             	3.36864396e+02
724             	3.36867329e+02
725             	3.36870253e+02
726             	3.36873163e+02
727             	3.36876065e+02
728             	3.36878964e+02
729             	3.36881872e+02
730             	3.36884784e+02
731             	3.36887684e+02
732             	3.36890566e+02
733             	3.36893430e+02
734             	3.36896278e+02
735             	3.36899106e+02
736             	3.36901922e+02
737             	3.36904722e+02
738             	3.36907508e+02
739             	3.36910283e+02
740             	3.36913045e+02
741             	3.36915791e+02
742             	3.36918531e+02
743             	3.36921266e+02
744             	3.36923994e+02
745             	3.36926701e+02
746             	3.36929376e+02
747             	3.36932008e+02
748             	3.36934597e+02
749             	3.36937153e+02
750             	3.36939685e+02
751             	3.36942208e+02
752             	3.36944734e+02
753             	3.36947261e+02
754             	3.36949786e+02
755             	3.36952298e+02
756             	3.36954785e+02
757             	3.36957241e+02
758             	3.36959660e+02
759             	3.36962047e+02
760             	3.36964413e+02
761             	3.36966763e+02
762             	3.36969099e+02
763             	3.36971423e+02
764             	3.36973737e+02
765             	3.36976042e+02
766             	3.36978345e+02
767             	3.36980648e+02
768             	3.36982950e+02
769             	3.36985249e+02
770             	3.36987542e+02
771             	3.36989826e+02
772             	3.36992098e+02
773             	3.36994354e+02
774             	3.36996599e+02
775             	3.36998834e+02
776             	3.37001061e+02
777             	3.37003278e+02
778             	3.37005480e+02
779             	3.37007674e+02
780             	3.37009856e+02
781             	3.37012028e+02
782             	3.37014198e+02
783             	3.37016356e+02
784             	3.37018506e+02
785             	3.37020650e+02
786             	3.37022787e+02
787             	3.37024912e+02
788             	3.37027034e+02
789             	3.37029149e+02
790             	3.37031252e+02
791             	3.37033347e+02
792             	3.37035429e+02
793             	3.37037498e+02
794             	3.37039558e+02
795             	3.37041605e+02
796             	3.37043643e+02
797             	3.37045662e+02
798             	3.37047661e+02
799             	3.37049642e+02
800             	3.37051601e+02
801             	3.37053538e+02
802             	3.37055448e+02
803             	3.37057331e+02
804             	3.37059191e+02
805             	3.37061032e+02
806             	3.37062859e+02
807             	3.37064676e+02
808             	3.37066485e+02
809             	3.37068287e+02
810             	3.37070080e+02
811             	3.37071860e+02
812             	3.37073632e+02
813             	3.37075390e+02
814             	3.37077140e+02
815             	3.37078888e+02
816             	3.37080641e+02
817             	3.37082398e+02
818             	3.37084158e+02
819             	3.37085933e+02
820             	3.37087691e+02
821             	3.37089453e+02
822             	3.37091193e+02
823             	3.37092916e+02
824             	3.37094623e+02
825             	3.37096332e+02
826             	3.37098025e+02
827             	3.37099694e+02
828             	3.37101354e+02
829             	3.37103012e+02
830             	3.37104666e+02
831             	3.37106326e+02
832             	3.37108008e+02
833             	3.37109723e+02
834             	3.37111454e+02
835             	3.37113203e+02
836             	3.37114958e+02
837             	3.37116690e+02
838             	3.37118385e+02
839             	3.37120103e+02
840             	3.37121821e+02
841             	3.37123522e+02
842             	3.37125170e+02
843             	3.37126765e+02
844             	3.37128258e+02
845             	3.37129667e+02
846             	3.37131032e+02
847             	3.37132364e+02
848             	3.37133710e+02
849             	3.37135081e+02
850             	3.37136506e+02
851             	3.37137985e+02
852             	3.37139511e+02
853             	3.37141061e+02
854             	3.37142612e+02
855             	3.37144141e+02
856             	3.37145634e+02
857             	3.37147077e+02
858             	3.37148482e+02
859             	3.37149856e+02
860             	3.37151211e+02
861             	3.37152539e+02
862             	3.37153845e+02
863             	3.37155128e+02
864             	3.37156385e+02
865             	3.37157634e+02
866             	3.37158871e+02
867             	3.37160108e+02
868             	3.37161353e+02
869             	3.37162617e+02
870             	3.37163905e+02
871             	3.37165221e+02
872             	3.37166563e+02
873             	3.37167929e+02
874             	3.37169307e+02
875             	3.37170693e+02
876             	3.37172080e+02
877             	3.37173459e+02
878             	3.37174827e+02
879             	3.37176183e+02
880             	3.37177510e+02
881             	3.37178827e+02
882             	3.37180120e+02
883             	3.37181388e+02
884             	3.37182625e+02
885             	3.37183827e+02
886             	3.37184986e+02
887             	3.37186118e+02
888             	3.37187234e+02
889             	3.37188334e+02
890             	3.37189441e+02
891             	3.37190562e+02
892             	3.37191709e+02
893             	3.37192875e+02
894             	3.37194063e+02
895             	3.37195259e+02
896             	3.37196453e+02
897             	3.37197642e+02
898             	3.37198815e+02
899             	3.37199963e+02
900             	3.37201098e+02
901             	3.37202221e+02
902             	3.37203332e+02
903             	3.37204425e+02
904             	3.37205502e+02
905             	3.37206552e+02
906             	3.37207592e+02
907             	3.37208621e+02
908             	3.37209643e+02
909             	3.37210660e+02
910             	3.37211675e+02
911             	3.37212692e+02
912             	3.37213719e+02
913             	3.37214744e+02
914             	3.37215779e+02
915             	3.37216815e+02
916             	3.37217847e+02
917             	3.37218869e+02
918             	3.37219875e+02
919             	3.37220862e+02
920             	3.37221829e+02
921             	3.37222787e+02
922             	3.37223738e+02
923             	3.37224677e+02
924             	3.37225622e+02
925             	3.37226573e+02
926             	3.37227534e+02
927             	3.37228505e+02
928             	3.37229484e+02
929             	3.37230469e+02
930             	3.37231455e+02
931             	3.37232442e+02
932             	3.37233433e+02
933             	3.37234421e+02