# Region        : cellZone pcb
# Cells         : 895
# Volume        : 1.64763649e+00
# Time          	volAverage(T)
1               	3.00002272e+02
2               	3.00006589e+02
3               	3.00012613e+02
4               	3.00020201e+02
5               	3.00029016e+02
6               	3.00039088e+02
7               	3.00050432e+02
8               	3.00063022e+02
9               	3.00076898e+02
10              	3.00092085e+02
11              	3.00108599e+02
12              	3.00126024e+02
13              	3.00144495e+02
14              	3.00163819e+02
15              	3.00184468e+02
16              	3.00206237e+02
17              	3.00228574e+02
18              	3.00251336e+02
19              	3.00274483e+02
20              	3.00298265e+02
21              	3.00322657e+02
22              	3.00347499e+02
23              	3.00373110e+02
24              	3.00399615e+02
25              	3.00426689e+02
26              	3.00454370e+02
27              	3.00482804e+02
28              	3.00512057e+02
29              	3.00541934e+02
30              	3.00572036e+02
31              	3.00602551e+02
32              	3.00633427e+02
33              	3.00664552e+02
34              	3.00695614e+02
35              	3.00727338e+02
36              	3.00759074e+02
37              	3.00790929e+02
38              	3.00822870e+02
39              	3.00855672e+02
40              	3.00888322e+02
41              	3.00921271e+02
42              	3.00953826e+02
43              	3.00987660e+02
44              	3.01021568e+02
45              	3.01055521e+02
46              	3.01090432e+02
47              	3.01126304e+02
48              	3.01161595e+02
49              	3.01196283e+02
50              	3.01231018e+02
51              	3.01266074e+02
52              	3.01301782e+02
53              	3.01336737e+02
54              	3.01371085e+02
55              	3.01403927e+02
56              	3.01436572e+02
57              	3.01469571e+02
58              	3.01503256e+02
59              	3.01536789e+02
60              	3.01570959e+02
61              	3.01605349e+02
62              	3.01640107e+02
63              	3.01675139e+02
64              	3.01710475e+02
65              	3.01746285e+02
66              	3.01782318e+02
67              	3.01818561e+02
68              	3.01854169e+02
69              	3.01889564e+02
70              	3.01924860e+02
71              	3.01959946e+02
72              	3.01994980e+02
73              	3.02030216e+02
74              	3.02065400e+02
75              	3.02100231e+02
76              	3.02134847e+02
77              	3.02168965e+02
78              	3.02203147e+02
79              	3.02238183e+02
80              	3.02273055e+02
81              	3.02308179e+02
82              	3.02342136e+02
83              	3.02376058e+02
84              	3.02410489e+02
85              	3.02445466e+02
86              	3.02480784e+02
87              	3.02515237e+02
88              	3.02549925e+02
89              	3.02583804e+02
90              	3.02616937e+02
91              	3.02649923e+02
92              	3.02682164e+02
93              	3.02714211e+02
94              	3.02745991e+02
95              	3.02778181e+02
96              	3.02810377e+02
97              	3.02842041e+02
98              	3.02874253e+02
99              	3.02906725e+02
100             	3.02939514e+02
101             	3.02971510e+02
102             	3.03002729e+02
103             	3.03034276e+02
104             	3.03065326e+02
105             	3.03096287e+02
106             	3.03127214e+02
107             	3.03158510e+02
108             	3.03190071e+02
109             	3.03221734e+02
110             	3.03253400e+02
111             	3.03284879e+02
112             	3.03315691e+02
113             	3.03345913e+02
114             	3.03375864e+02
115             	3.03405085e+02
116             	3.03433874e+02
117             	3.03462508e+02
118             	3.03491115e+02
119             	3.03519726e+02
120             	3.03548519e+02
121             	3.03577230e+02
122             	3.03605829e+02
123             	3.03634322e+02
124             	3.03662692e+02
125             	3.03690879e+02
126             	3.03718761e+02
127             	3.03746685e+02
128             	3.03774542e+02
129             	3.03802360e+02
130             	3.03830145e+02
131             	3.03857776e+02
132             	3.03885495e+02
133             	3.03912844e+02
134             	3.03939972e+02
135             	3.03966924e+02
136             	3.03993622e+02
137             	3.04020076e+02
138             	3.04046237e+02
139             	3.04072344e+02
140             	3.04098480e+02
141             	3.04124213e+02
142             	3.04149820e+02
143             	3.04175268e+02
144             	3.04200472e+02
145             	3.04225303e+02
146             	3.04250111e+02
147             	3.04274746e+02
148             	3.04299253e+02
149             	3.04323628e+02
150             	3.04347970e+02
151             	3.04372210e+02
152             	3.04396312e+02
153             	3.04420160e+02
154             	3.04443716e+02
155             	3.04467339e+02
156             	3.04490793e+02
157             	3.04514129e+02
158             	3.04537265e+02
159             	3.04560154e+02
160             	3.04583068e+02
161             	3.04605836e+02
162             	3.04628437e+02
163             	3.04650865e+02
164             	3.04673070e+02
165             	3.04695043e+02
166             	3.04717001e+02
167             	3.04738813e+02
168             	3.04760603e+02
169             	3.04782033e+02
170             	3.04803309e+02
171             	3.04824596e+02
172             	3.04845897e+02
173             	3.04867078e+02
174             	3.04887954e+02
175             	3.04908760e+02
176             	3.04929464e+02
177             	3.04949924e+02
178             	3.04970228e+02
179             	3.04990228e+02
180             	3.05010048e+02
181             	3.05029719e+02
182             	3.05049322e+02
183             	3.05068988e+02
184             	3.05088519e+02
185             	3.05107807e+02
186             	3.05126919e+02
187             	3.05145900e+02
188             	3.05164732e+02
189             	3.05183397e+02
190             	3.05201940e+02
191             	3.05220274e+02
192             	3.05238586e+02
193             	3.05256814e+02
194             	3.05275005e+02
195             	3.05293106e+02
196             	3.05311117e+02
197             	3.05328982e+02
198             	3.05346798e+02
199             	3.05364479e+02
200             	3.05381988e+02
201             	3.05399389e+02
202             	3.05416614e+02
203             	3.05433633e+02
204             	3.05450552e+02
205             	3.05467343e+02
206             	3.05484019e+02
207             	3.05500720e+02
208             	3.05517420e+02
209             	3.05533904e+02
210             	3.05550184e+02
211             	3.05566348e+02
212             	3.05582349e+02
213             	3.05598125e+02
214             	3.05613902e+02
215             	3.05629521e+02
216             	3.05645042e+02
217             	3.05660431e+02
218             	3.05675694e+02
219             	3.05690879e+02
220             	3.05705934e+02
221             	3.05720879e+02
222             	3.05735705e+02
223             	3.05750388e+02
224             	3.05765020e+02
225             	3.05779560e+02
226             	3.05793974e+02
227             	3.05808366e+02
228             	3.05822723e+02
229             	3.05837034e+02
230             	3.05851254e+02
231             	3.05865389e+02
232             	3.05879360e+02
233             	3.05893313e+02
234             	3.05907168e+02
235             	3.05920924e+02
236             	3.05934684e+02
237             	3.05948312e+02
238             	3.05961785e+02
239             	3.05975216e+02
240             	3.05988531e+02
241             	3.06001700e+02
242             	3.06014840e+02
243             	3.06027886e+02
244             	3.06040741e+02
245             	3.06053484e+02
246             	3.06066092e+02
247             	3.06078584e+02
248             	3.06090990e+02
249             	3.06103304e+02
250             	3.06115493e+02
251             	3.06127608e+02
252             	3.06139637e+02
253             	3.06151603e+02
254             	3.06163493e+02
255             	3.06175267e+02
256             	3.06187044e+02
257             	3.06198761e+02
258             	3.06210338e+02
259             	3.06221919e+02
260             	3.06233499e+02
261             	3.06245013e+02
262             	3.06256517e+02
263             	3.06267892e+02
264             	3.06279246e+02
265             	3.06290558e+02
266             	3.06301787e+02
267             	3.06312941e+02
268             	3.06324008e+02
269             	3.06334997e+02
270             	3.06345922e+02
271             	3.06356733e+02
272             	3.06367409e+02
273             	3.06378058e+02
274             	3.06388618e+02
275             	3.06399035e+02
276             	3.06409397e+02
277             	3.06419636e+02
278             	3.06429707e+02
279             	3.06439732e+02
280             	3.06449625e+02
281             	3.06459371e+02
282             	3.06469095e+02
283             	3.06478743e+02
284             	3.06488251e+02
285             	3.06497711e+02
286             	3.06507080e+02
287             	3.06516420e+02
288             	3.06525724e+02
289             	3.06534957e+02
290             	3.06544130e+02
291             	3.06553246e+02
292             	3.06562279e+02
293             	3.06571315e+02
294             	3.06580308e+02
295             	3.06589225e+02
296             	3.06598059e+02
297             	3.06606862e+02
298             	3.06615614e+02
299             	3.06624283e+02
300             	3.06632908e+02
301             	3.06641490e+02
302             	3.06649984e+02
303             	3.06658342e+02
304             	3.06666670e+02
305             	3.06674911e+02
306             	3.06683037e+02
307             	3.06691123e+02
308             	3.06699131e+02
309             	3.06707009e+02
310             	3.06714830e+02
311             	3.06722547e+02
312             	3.06730160e+02
313             	3.06737712e+02
314             	3.06745206e+02
315             	3.06752618e+02
316             	3.06759905e+02
317             	3.06767173e+02
318             	3.06774411e+02
319             	3.06781551e+02
320             	3.06788671e+02
321             	3.06795723e+02
322             	3.06802726e+02
323             	3.06809671e+02
324             	3.06816581e+02
325             	3.06823463e+02
326             	3.06830225e+02
327             	3.06837015e+02
328             	3.06843779e+02
329             	3.06850498e+02
330             	3.06857126e+02
331             	3.06863736e+02
332             	3.06870290e+02
333             	3.06876721e+02
334             	3.06883134e+02
335             	3.06889484e+02
336             	3.06895719e+02
337             	3.06901932e+02
338             	3.06908092e+02
339             	3.06914128e+02
340             	3.06920157e+02
341             	3.06926138e+02
342             	3.06932041e+02
343             	3.06937912e+02
344             	3.06943746e+02
345             	3.06949481e+02
346             	3.06955206e+02
347             	3.06960882e+02
348             	3.06966476e+02
349             	3.06972058e+02
350             	3.06977618e+02
351             	3.06983116e+02
352             	3.06988605e+02
353             	3.06994098e+02
354             	3.06999557e+02
355             	3.07004997e+02
356             	3.07010409e+02
357             	3.07015751e+02
358             	3.07021076e+02
359             	3.07026361e+02
360             	3.07031558e+02
361             	3.07036746e+02
362             	3.07041898e+02
363             	3.07046955e+02
364             	3.07052004e+02
365             	3.07057014e+02
366             	3.07061932e+02
367             	3.07066836e+02
368             	3.07071698e+02
369             	3.07076475e+02
370             	3.07081232e+02
371             	3.07085946e+02
372             	3.07090592e+02
373             	3.07095210e+02
374             	3.07099788e+02
375             	3.07104301e+02
376             	3.07108800e+02
377             	3.07113277e+02
378             	3.07117708e+02
379             	3.07122126e+02
380             	3.07126525e+02
381             	3.07130873e+02
382             	3.07135225e+02
383             	3.07139560e+02
384             	3.07143837e+02
385             	3.07148119e+02
386             	3.07152379e+02
387             	3.07156580e+02
388             	3.07160786e+02
389             	3.07164972e+02
390             	3.07169104e+02
391             	3.07173226e+02
392             	3.07177326e+02
393             	3.07181367e+02
394             	3.07185400e+02
395             	3.07189406e+02
396             	3.07193376e+02
397             	3.07197298e+02
398             	3.07201178e+02
399             	3.07205025e+02
400             	3.07208854e+02
401             	3.07212647e+02
402             	3.07216410e+02
403             	3.07220143e+02
404             	3.07223845e+02
405             	3.07227523e+02
406             	3.07231168e+02
407             	3.07234786e+02
408             	3.07238381e+02
409             	3.07241945e+02
410             	3.07245486e+02
411             	3.07248997e+02
412             	3.07252480e+02
413             	3.07255938e+02
414             	3.07259365e+02
415             	3.07262765e+02
416             	3.07266140e+02
417             	3.07269487e+02
418             	3.07272809e+02
419             	3.07276107e+02
420             	3.07279379e+02
421             	3.07282628e+02
422             	3.07285854e+02
423             	3.07289057e+02
424             	3.07292238e+02
425             	3.07295397e+02
426             	3.07298531e+02
427             	3.07301642e+02
428             	3.07304732e+02
429             	3.07307799e+02
430             	3.07310845e+02
431             	3.07313868e+02
432             	3.07316872e+02
433             	3.07319854e+02
434             	3.07322816e+02
435             	3.07325758e+02
436             	3.07328681e+02
437             	3.07331581e+02
438             	3.07334460e+02
439             	3.07337318e+02
440             	3.07340157e+02
441             	3.07342979e+02
442             	3.07345778e+02
443             	3.07348556e+02
444             	3.07351313e+02
445             	3.07354045e+02
446             	3.07356756e+02
447             	3.07359443e+02
448             	3.07362107e+02
449             	3.07364751e+02
450             	3.07367372e+02
451             	3.07369970e+02
452             	3.07372555e+02
453             	3.07375115e+02
454             	3.07377658e+02
455             	3.07380180e+02
456             	3.07382680e+02
457             	3.07385160e+02
458             	3.07387621e+02
459             	3.07390064e+02
460             	3.07392491e+02
461             	3.07394901e+02
462             	3.07397293e+02
463             	3.07399670e+02
464             	3.07402032e+02
465             	3.07404377e+02
466             	3.07406707e+02
467             	3.07409018e+02
468             	3.07411314e+02
469             	3.07413593e+02
470             	3.07415856e+02
471             	3.07418102e+02
472             	3.07420332e+02
473             	3.07422551e+02
474             	3.07424757e+02
475             	3.07426944e+02
476             	3.07429113e+02
477             	3.07431262e+02
478             	3.07433392e+02
479             	3.07435506e+02
480             	3.07437600e+02
481             	3.07439676e+02
482             	3.07441736e+02
483             	3.07443784e+02
484             	3.07445810e+02
485             	3.07447829e+02
486             	3.07449824e+02
487             	3.07451804e+02
488             	3.07453768e+02
489             	3.07455715e+02
490             	3.07457684e+02
491             	3.07459641e+02
492             	3.07461586e+02
493             	3.07463522e+02
494             	3.07465452e+02
495             	3.07467368e+02
496             	3.07469276e+02
497             	3.07471169e+02
498             	3.07473034e+02
499             	3.07474899e+02
500             	3.07476753e+02
501             	3.07478579e+02
502             	3.07480402e+02
503             	3.07482214e+02
504             	3.07484007e+02
505             	3.07485796e+02
506             	3.07487576e+02
507             	3.07489340e+02
508             	3.07491100e+02
509             	3.07492850e+02
510             	3.07494584e+02
511             	3.07496312e+02
512             	3.07498031e+02
513             	3.07499732e+02
514             	3.07501427e+02
515             	3.07503111e+02
516             	3.07504780e+02
517             	3.07506440e+02
518             	3.07508092e+02
519             	3.07509721e+02
520             	3.07511351e+02
521             	3.07512973e+02
522             	3.07514579e+02
523             	3.07516185e+02
524             	3.07517785e+02
525             	3.07519370e+02
526             	3.07520955e+02
527             	3.07522536e+02
528             	3.07524102e+02
529             	3.07525669e+02
530             	3.07527232e+02
531             	3.07528780e+02
532             	3.07530328e+02
533             	3.07531869e+02
534             	3.07533391e+02
535             	3.07534920e+02
536             	3.07536449e+02
537             	3.07537964e+02
538             	3.07539478e+02
539             	3.07540984e+02
540             	3.07542473e+02
541             	3.07543964e+02
542             	3.07545452e+02
543             	3.07546923e+02
544             	3.07548394e+02
545             	3.07549855e+02
546             	3.07551292e+02
547             	3.07552716e+02
548             	3.07554125e+02
549             	3.07555516e+02
550             	3.07556899e+02
551             	3.07558254e+02
552             	3.07559576e+02
553             	3.07560885e+02
554             	3.07562171e+02
555             	3.07563439e+02
556             	3.07564688e+02
557             	3.07565917e+02
558             	3.07567131e+02
559             	3.07568322e+02
560             	3.07569499e+02
561             	3.07570659e+02
562             	3.07571804e+02
563             	3.07572918e+02
564             	3.07574016e+02
565             	3.07575101e+02
566             	3.07576170e+02
567             	3.07577201e+02
568             	3.07578225e+02
569             	3.07579238e+02
570             	3.07580239e+02
571             	3.07581221e+02
572             	3.07582175e+02
573             	3.07583097e+02
574             	3.07583984e+02
575             	3.07584846e+02
576             	3.07585743e+02
577             	3.07586602e+02
578             	3.07587423e+02
579             	3.07588216e+02
580             	3.07588992e+02
581             	3.07589748e+02
582             	3.07590405e+02
583             	3.07591084e+02
584             	3.07591780e+02
585             	3.07592526e+02
586             	3.07593305e+02
587             	3.07594036e+02
588             	3.07594785e+02
589             	3.07595469e+02
590             	3.07596073e+02
591             	3.07596649e+02
592             	3.07597214e+02
593             	3.07597797e+02
594             	3.07598391e+02
595             	3.07598986e+02
596             	3.07599577e+02
597             	3.07600154e+02
598             	3.07600703e+02
599             	3.07601217e+02
600             	3.07601717e+02
601             	3.07602236e+02
602             	3.07602768e+02
603             	3.07603308e+02
604             	3.07603865e+02
605             	3.07604410e+02
606             	3.07604977e+02
607             	3.07605548e+02
608             	3.07606131e+02
609             	3.07606714e+02
610             	3.07607296e+02
611             	3.07607879e+02
612             	3.07608465e+02
613             	3.07609045e+02
614             	3.07609620e+02
615             	3.07610178e+02
616             	3.07610741e+02
617             	3.07611316e+02
618             	3.07611874e+02
619             	3.07612419e+02
620             	3.07612947e+02
621             	3.07613460e+02
622             	3.07613962e+02
623             	3.07614456e+02
624             	3.07614941e+02
625             	3.07615418e+02
626             	3.07615890e+02
627             	3.07616362e+02
628             	3.07616826e+02
629             	3.07617281e+02
630             	3.07617741e+02
631             	3.07618206e+02
632             	3.07618678e+02
633             	3.07619146e+02
634             	3.07619607e+02
635             	3.07620065e+02
636             	3.07620532e+02
637             	3.07620994e+02
638             	3.07621459e+02
639             	3.07621926e+02
640             	3.07622390e+02
641             	3.07622850e+02
642             	3.07623303e+02
643             	3.07623758e+02
644             	3.07624210e+02
645             	3.07624660e+02
646             	3.07625111e+02
647             	3.07625573e+02
648             	3.07626032e+02
649             	3.07626486e+02
650             	3.07626951e+02
651             	3.07627410e+02
652             	3.07627879e+02
653             	3.07628333e+02
654             	3.07628777e+02
655             	3.07629216e+02
656             	3.07629651e+02
657             	3.07630084e+02
658             	3.07630512e+02
659             	3.07630938e+02
660             	3.07631360e+02
661             	3.07631778e+02
662             	3.07632191e+02
663             	3.07632605e+02
664             	3.07633008e+02
665             	3.07633408e+02
666             	3.07633813e+02
667             	3.07634221e+02
668             	3.07634623e+02
669             	3.07635027e+02
670             	3.07635428e+02
671             	3.07635826e+02
672             	3.07636217e+02
673             	3.07636604e+02
674             	3.07636996e+02
675             	3.07637382e+02
676             	3.07637769e+02
677             	3.07638161e+02
678             	3.07638548e+02
679             	3.07638934e+02
680             	3.07639316e+02
681             	3.07639694e+02
682             	3.07640070e+02
683             	3.07640445e+02
684             	3.07640818e+02
685             	3.07641192e+02
686             	3.07641567e+02
687             	3.07641939e+02
688             	3.07642314e+02
689             	3.07642686e+02
690             	3.07643058e+02
691             	3.07643426e+02
692             	3.07643787e+02
693             	3.07644143e+02
694             	3.07644503e+02
695             	3.07644866e+02
696             	3.07645217e+02
697             	3.07645565e+02
698             	3.07645912e+02
699             	3.07646258e+02
700             	3.07646604e+02
701             	3.07646948e+02
702             	3.07647280e+02
703             	3.07647607e+02
704             	3.07647940e+02
705             	3.07648265e+02
706             	3.07648587e+02
707             	3.07648909e+02
708             	3.07649231e+02
709             	3.07649548e+02
710             	3.07649859e+02
711             	3.07650167e+02
712             	3.07650471e+02
713             	3.07650775e+02
714             	3.07651083e+02
715             	3.07651393e+02
716             	3.07651705e+02
717             	3.07652010e+02
718             	3.07652315e+02
719             	3.07652617e+02
720             	3.07652918e+02
721             	3.07653218e+02
722             	3.07653521e+02
723             	3.07653825e+02
724             	3.07654124e+02
725             	3.07654418e+02
726             	3.07654706e+02
727             	3.07654989e+02
728             	3.07655270e+02
729             	3.07655549e+02
730             	3.07655823e+02
731             	3.07656094e+02
732             	3.07656358e+02
733             	3.07656621e+02
734             	3.07656882e+02
735             	3.07657141e+02
736             	3.07657400e+02
737             	3.07657656e+02
738             	3.07657908e+02
739             	3.07658161e+02
740             	3.07658412e+02
741             	3.07658658e+02
742             	3.07658903e+02
743             	3.07659143e+02
744             	3.07659383e+02
745             	3.07659625e+02
746             	3.07659867e+02
747             	3.07660106e+02
748             	3.07660343e+02
749             	3.07660576e+02
750             	3.07660806e+02
751             	3.07661035e+02
752             	3.07661267e+02
753             	3.07661498e+02
754             	3.07661728e+02
755             	3.07661959e+02
756             	3.07662183e+02
757             	3.07662407e+02
758             	3.07662630e+02
759             	3.07662850e+02
760             	3.07663068e+02
761             	3.07663284e+02
762             	3.07663495e+02
763             	3.07663706e+02
764             	3.07663916e+02
765             	3.07664122e+02
766             	3.07664324e+02
767             	3.07664524e+02
768             	3.07664719e+02
769             	3.07664910e+02
770             	3.07665099e+02
771             	3.07665282e+02
772             	3.07665466e+02
773             	3.07665650e+02
774             	3.07665832e+02
775             	3.07666014e+02
776             	3.07666193e+02
777             	3.07666368e+02
778             	3.07666542e+02
779             	3.07666714e+02
780             	3.07666884e+02
781             	3.07667055e+02
782             	3.07667225e+02
783             	3.07667392e+02
784             	3.07667558e+02
785             	3.07667723e+02
786             	3.07667886e+02
787             	3.07668048e+02
788             	3.07668209e+02
789             	3.07668368e+02
790             	3.07668527e+02
791             	3.07668704e+02
792             	3.07668892e+02
793             	3.07669072e+02
794             	3.07669243e+02
795             	3.07669423e+02
796             	3.07669595e+02
797             	3.07669758e+02
798             	3.07669931e+02
799             	3.07670094e+02
800             	3.07670247e+02
801             	3.07670405e+02
802             	3.07670555e+02
803             	3.07670701e+02
804             	3.07670858e+02
805             	3.07671006e+02
806             	3.07671146e+02
807             	3.07671298e+02
808             	3.07671443e+02
809             	3.07671579e+02
810             	3.07671721e+02
811             	3.07671855e+02
812             	3.07671983e+02
813             	3.07672125e+02
814             	3.07672259e+02
815             	3.07672386e+02
816             	3.07672522e+02
817             	3.07672649e+02
818             	3.07672768e+02
819             	3.07672899e+02
820             	3.07673020e+02
821             	3.07673134e+02
822             	3.07673258e+02
823             	3.07673375e+02
824             	3.07673486e+02
825             	3.07673605e+02
826             	3.07673715e+02
827             	3.07673818e+02
828             	3.07673930e+02
829             	3.07674035e+02
830             	3.07674133e+02
831             	3.07674238e+02
832             	3.07674338e+02
833             	3.07674434e+02
834             	3.07674538e+02
835             	3.07674636e+02
836             	3.07674728e+02
837             	3.07674826e+02
838             	3.07674918e+02
839             	3.07675005e+02
840             	3.07675098e+02
841             	3.07675185e+02
842             	3.07675269e+02
843             	3.07675362e+02
844             	3.07675445e+02
845             	3.07675525e+02
846             	3.07675613e+02
847             	3.07675696e+02
848             	3.07675774e+02
849             	3.07675851e+02
850             	3.07675925e+02
851             	3.07675998e+02
852             	3.07676079e+02
853             	3.07676153e+02
854             	3.07676223e+02
855             	3.07676302e+02
856             	3.07676373e+02
857             	3.07676437e+02
858             	3.07676506e+02
859             	3.07676575e+02
860             	3.07676639e+02
861             	3.07676705e+02
862             	3.07676767e+02
863             	3.07676828e+02
864             	3.07676897e+02
865             	3.07676962e+02
866             	3.07677023e+02
867             	3.07677086e+02
868             	3.07677144e+02
869             	3.07677199e+02
870             	3.07677262e+02
871             	3.07677321e+02
872             	3.07677377e+02
873             	3.07677438e+02
874             	3.07677495e+02
875             	3.07677551e+02
876             	3.07677612e+02
877             	3.07677669e+02
878             	3.07677723e+02
879             	3.07677779e+02
880             	3.07677831e+02
881             	3.07677881e+02
882             	3.07677939e+02
883             	3.07677994e+02
884             	3.07678045e+02
885             	3.07678099e+02
886             	3.07678150e+02
887             	3.07678203e+02
888             	3.07678257e+02
889             	3.07678308e+02
890             	3.07678358e+02
891             	3.07678412e+02
892             	3.07678463e+02
893             	3.07678512e+02
894             	3.07678569e+02
895             	3.07678621e+02
896             	3.07678666e+02
897             	3.07678716e+02
898             	3.07678762e+02
899             	3.07678808e+02
900             	3.07678856e+02
901             	3.07678901e+02
902             	3.07678945e+02
903             	3.07678993e+02
904             	3.07679038e+02
905             	3.07679081e+02
906             	3.07679128e+02
907             	3.07679172e+02
908             	3.07679215e+02
909             	3.07679262e+02
910             	3.07679305e+02
911             	3.07679347e+02
912             	3.07679391e+02
913             	3.07679432e+02
914             	3.07679472e+02
915             	3.07679514e+02
916             	3.07679556e+02
917             	3.07679596e+02
918             	3.07679640e+02
919             	3.07679680e+02
920             	3.07679720e+02
921             	3.07679763e+02
922             	3.07679803e+02
923             	3.07679841e+02
924             	3.07679881e+02
925             	3.07679919e+02
926             	3.07679955e+02
927             	3.07679994e+02
928             	3.07680032e+02
929             	3.07680069e+02
930             	3.07680107e+02
931             	3.07680144e+02
932             	3.07680180e+02
933             	3.07680218e+02