# Region        : cellZone pcb
# Cells         : 578
# Volume        : 1.07051826e+00
# Time          	volAverage(T)
1               	3.00007983e+02
2               	3.00023142e+02
3               	3.00044101e+02
4               	3.00070562e+02
5               	3.00101672e+02
6               	3.00137197e+02
7               	3.00176825e+02
8               	3.00220531e+02
9               	3.00267816e+02
10              	3.00318530e+02
11              	3.00372551e+02
12              	3.00429349e+02
13              	3.00489053e+02
14              	3.00551205e+02
15              	3.00615243e+02
16              	3.00681550e+02
17              	3.00752336e+02
18              	3.00823446e+02
19              	3.00896592e+02
20              	3.00972624e+02
21              	3.01050620e+02
22              	3.01129223e+02
23              	3.01208552e+02
24              	3.01289769e+02
25              	3.01372252e+02
26              	3.01454869e+02
27              	3.01538265e+02
28              	3.01623353e+02
29              	3.01709180e+02
30              	3.01796023e+02
31              	3.01883057e+02
32              	3.01969755e+02
33              	3.02057191e+02
34              	3.02145812e+02
35              	3.02234794e+02
36              	3.02323542e+02
37              	3.02412386e+02
38              	3.02501352e+02
39              	3.02592669e+02
40              	3.02684261e+02
41              	3.02775900e+02
42              	3.02867561e+02
43              	3.02957587e+02
44              	3.03048062e+02
45              	3.03137528e+02
46              	3.03226645e+02
47              	3.03313921e+02
48              	3.03402169e+02
49              	3.03490509e+02
50              	3.03577646e+02
51              	3.03664207e+02
52              	3.03750093e+02
53              	3.03835616e+02
54              	3.03920312e+02
55              	3.04004871e+02
56              	3.04090678e+02
57              	3.04177638e+02
58              	3.04262598e+02
59              	3.04344900e+02
60              	3.04426717e+02
61              	3.04508681e+02
62              	3.04590254e+02
63              	3.04671926e+02
64              	3.04751029e+02
65              	3.04829419e+02
66              	3.04905316e+02
67              	3.04978773e+02
68              	3.05053413e+02
69              	3.05130496e+02
70              	3.05207227e+02
71              	3.05281366e+02
72              	3.05354746e+02
73              	3.05428175e+02
74              	3.05500970e+02
75              	3.05571770e+02
76              	3.05640795e+02
77              	3.05710247e+02
78              	3.05779841e+02
79              	3.05847811e+02
80              	3.05914461e+02
81              	3.05981063e+02
82              	3.06047623e+02
83              	3.06113249e+02
84              	3.06178946e+02
85              	3.06244662e+02
86              	3.06310300e+02
87              	3.06374834e+02
88              	3.06438478e+02
89              	3.06500480e+02
90              	3.06560575e+02
91              	3.06619989e+02
92              	3.06678742e+02
93              	3.06737133e+02
94              	3.06795703e+02
95              	3.06853815e+02
96              	3.06911567e+02
97              	3.06969359e+02
98              	3.07026889e+02
99              	3.07083912e+02
100             	3.07140545e+02
101             	3.07196812e+02
102             	3.07251690e+02
103             	3.07306057e+02
104             	3.07360234e+02
105             	3.07414568e+02
106             	3.07468093e+02
107             	3.07520134e+02
108             	3.07571792e+02
109             	3.07622277e+02
110             	3.07672345e+02
111             	3.07722006e+02
112             	3.07771125e+02
113             	3.07819546e+02
114             	3.07867317e+02
115             	3.07915321e+02
116             	3.07962604e+02
117             	3.08009058e+02
118             	3.08055137e+02
119             	3.08100663e+02
120             	3.08145751e+02
121             	3.08190575e+02
122             	3.08235133e+02
123             	3.08279365e+02
124             	3.08323135e+02
125             	3.08366213e+02
126             	3.08408793e+02
127             	3.08450961e+02
128             	3.08492674e+02
129             	3.08533868e+02
130             	3.08574534e+02
131             	3.08614856e+02
132             	3.08654408e+02
133             	3.08693111e+02
134             	3.08731238e+02
135             	3.08769105e+02
136             	3.08806705e+02
137             	3.08843638e+02
138             	3.08879549e+02
139             	3.08915235e+02
140             	3.08950553e+02
141             	3.08985603e+02
142             	3.09020542e+02
143             	3.09054870e+02
144             	3.09089180e+02
145             	3.09123382e+02
146             	3.09157102e+02
147             	3.09190222e+02
148             	3.09222845e+02
149             	3.09254906e+02
150             	3.09286423e+02
151             	3.09317448e+02
152             	3.09348023e+02
153             	3.09378238e+02
154             	3.09408197e+02
155             	3.09437582e+02
156             	3.09466281e+02
157             	3.09494714e+02
158             	3.09522958e+02
159             	3.09550911e+02
160             	3.09578563e+02
161             	3.09605920e+02
162             	3.09632965e+02
163             	3.09659687e+02
164             	3.09686126e+02
165             	3.09712179e+02
166             	3.09737907e+02
167             	3.09763365e+02
168             	3.09788481e+02
169             	3.09813319e+02
170             	3.09837847e+02
171             	3.09862017e+02
172             	3.09885819e+02
173             	3.09909260e+02
174             	3.09932366e+02
175             	3.09955163e+02
176             	3.09977705e+02
177             	3.10000029e+02
178             	3.10022029e+02
179             	3.10043766e+02
180             	3.10065233e+02
181             	3.10086375e+02
182             	3.10107250e+02
183             	3.10127862e+02
184             	3.10148217e+02
185             	3.10168311e+02
186             	3.10188244e+02
187             	3.10208075e+02
188             	3.10227756e+02
189             	3.10247157e+02
190             	3.10266245e+02
191             	3.10285103e+02
192             	3.10303752e+02
193             	3.10322156e+02
194             	3.10340283e+02
195             	3.10358134e+02
196             	3.10375725e+02
197             	3.10392908e+02
198             	3.10409743e+02
199             	3.10426374e+02
200             	3.10442780e+02
201             	3.10459004e+02
202             	3.10475062e+02
203             	3.10490957e+02
204             	3.10506666e+02
205             	3.10522103e+02
206             	3.10537302e+02
207             	3.10552304e+02
208             	3.10567125e+02
209             	3.10581762e+02
210             	3.10596197e+02
211             	3.10610438e+02
212             	3.10624504e+02
213             	3.10638399e+02
214             	3.10652122e+02
215             	3.10665683e+02
216             	3.10679093e+02
217             	3.10692353e+02
218             	3.10705451e+02
219             	3.10718384e+02
220             	3.10731169e+02
221             	3.10743787e+02
222             	3.10756221e+02
223             	3.10768486e+02
224             	3.10780598e+02
225             	3.10792558e+02
226             	3.10804379e+02
227             	3.10816053e+02
228             	3.10827572e+02
229             	3.10838946e+02
230             	3.10850186e+02
231             	3.10861296e+02
232             	3.10872277e+02
233             	3.10883166e+02
234             	3.10893918e+02
235             	3.10904536e+02
236             	3.10915057e+02
237             	3.10925494e+02
238             	3.10935841e+02
239             	3.10946038e+02
240             	3.10956063e+02
241             	3.10965887e+02
242             	3.10975500e+02
243             	3.10984922e+02
244             	3.10994186e+02
245             	3.11003327e+02
246             	3.11012355e+02
247             	3.11021272e+02
248             	3.11030077e+02
249             	3.11038767e+02
250             	3.11047321e+02
251             	3.11055761e+02
252             	3.11064080e+02
253             	3.11072295e+02
254             	3.11080405e+02
255             	3.11088412e+02
256             	3.11096302e+02
257             	3.11104083e+02
258             	3.11111767e+02
259             	3.11119360e+02
260             	3.11126864e+02
261             	3.11134282e+02
262             	3.11141616e+02
263             	3.11148867e+02
264             	3.11156031e+02
265             	3.11163109e+02
266             	3.11170099e+02
267             	3.11176999e+02
268             	3.11183810e+02
269             	3.11190536e+02
270             	3.11197182e+02
271             	3.11203751e+02
272             	3.11210247e+02
273             	3.11216671e+02
274             	3.11223024e+02
275             	3.11229302e+02
276             	3.11235514e+02
277             	3.11241644e+02
278             	3.11247714e+02
279             	3.11253732e+02
280             	3.11259688e+02
281             	3.11265590e+02
282             	3.11271440e+02
283             	3.11277213e+02
284             	3.11282912e+02
285             	3.11288576e+02
286             	3.11294222e+02
287             	3.11299790e+02
288             	3.11305246e+02
289             	3.11310609e+02
290             	3.11315901e+02
291             	3.11321128e+02
292             	3.11326123e+02
293             	3.11330960e+02
294             	3.11335755e+02
295             	3.11340508e+02
296             	3.11345213e+02
297             	3.11349861e+02
298             	3.11354440e+02
299             	3.11358955e+02
300             	3.11363403e+02
301             	3.11367793e+02
302             	3.11372135e+02
303             	3.11376435e+02
304             	3.11380687e+02
305             	3.11384890e+02
306             	3.11389046e+02
307             	3.11393153e+02
308             	3.11397211e+02
309             	3.11401227e+02
310             	3.11405199e+02
311             	3.11409128e+02
312             	3.11413012e+02
313             	3.11416850e+02
314             	3.11420646e+02
315             	3.11424390e+02
316             	3.11428110e+02
317             	3.11431796e+02
318             	3.11435444e+02
319             	3.11439061e+02
320             	3.11442639e+02
321             	3.11446172e+02
322             	3.11449663e+02
323             	3.11453109e+02
324             	3.11456510e+02
325             	3.11459873e+02
326             	3.11463206e+02
327             	3.11466517e+02
328             	3.11469825e+02
329             	3.11473133e+02
330             	3.11476425e+02
331             	3.11479696e+02
332             	3.11482941e+02
333             	3.11486113e+02
334             	3.11489188e+02
335             	3.11492178e+02
336             	3.11495082e+02
337             	3.11497917e+02
338             	3.11500721e+02
339             	3.11503507e+02
340             	3.11506219e+02
341             	3.11508863e+02
342             	3.11511476e+02
343             	3.11514051e+02
344             	3.11516587e+02
345             	3.11519092e+02
346             	3.11521569e+02
347             	3.11524019e+02
348             	3.11526440e+02
349             	3.11528831e+02
350             	3.11531194e+02
351             	3.11533535e+02
352             	3.11535859e+02
353             	3.11538169e+02
354             	3.11540464e+02
355             	3.11542742e+02
356             	3.11545000e+02
357             	3.11547235e+02
358             	3.11549452e+02
359             	3.11551638e+02
360             	3.11553813e+02
361             	3.11555976e+02
362             	3.11558109e+02
363             	3.11560215e+02
364             	3.11562304e+02
365             	3.11564375e+02
366             	3.11566419e+02
367             	3.11568426e+02
368             	3.11570422e+02
369             	3.11572411e+02
370             	3.11574383e+02
371             	3.11576344e+02
372             	3.11578298e+02
373             	3.11580247e+02
374             	3.11582192e+02
375             	3.11584131e+02
376             	3.11586050e+02
377             	3.11587932e+02
378             	3.11589770e+02
379             	3.11591552e+02
380             	3.11593305e+02
381             	3.11595039e+02
382             	3.11596751e+02
383             	3.11598439e+02
384             	3.11600096e+02
385             	3.11601716e+02
386             	3.11603321e+02
387             	3.11604831e+02
388             	3.11606265e+02
389             	3.11607693e+02
390             	3.11609109e+02
391             	3.11610518e+02
392             	3.11611917e+02
393             	3.11613305e+02
394             	3.11614681e+02
395             	3.11616046e+02
396             	3.11617402e+02
397             	3.11618751e+02
398             	3.11620103e+02
399             	3.11621434e+02
400             	3.11622745e+02
401             	3.11624047e+02
402             	3.11625334e+02
403             	3.11626609e+02
404             	3.11627871e+02
405             	3.11629123e+02
406             	3.11630366e+02
407             	3.11631603e+02
408             	3.11632831e+02
409             	3.11634058e+02
410             	3.11635284e+02
411             	3.11636500e+02
412             	3.11637699e+02
413             	3.11638880e+02
414             	3.11640051e+02
415             	3.11641211e+02
416             	3.11642356e+02
417             	3.11643504e+02
418             	3.11644657e+02
419             	3.11645814e+02
420             	3.11646976e+02
421             	3.11648147e+02
422             	3.11649346e+02
423             	3.11650587e+02
424             	3.11651780e+02
425             	3.11652948e+02
426             	3.11654101e+02
427             	3.11655218e+02
428             	3.11656245e+02
429             	3.11657171e+02
430             	3.11658042e+02
431             	3.11658894e+02
432             	3.11659744e+02
433             	3.11660584e+02
434             	3.11661411e+02
435             	3.11662247e+02
436             	3.11663055e+02
437             	3.11663833e+02
438             	3.11664604e+02
439             	3.11665369e+02
440             	3.11666126e+02
441             	3.11666874e+02
442             	3.11667611e+02
443             	3.11668337e+02
444             	3.11669055e+02
445             	3.11669766e+02
446             	3.11670471e+02
447             	3.11671172e+02
448             	3.11671868e+02
449             	3.11672557e+02
450             	3.11673239e+02
451             	3.11673913e+02
452             	3.11674582e+02
453             	3.11675246e+02
454             	3.11675911e+02
455             	3.11676575e+02
456             	3.11677236e+02
457             	3.11677893e+02
458             	3.11678550e+02
459             	3.11679215e+02
460             	3.11679889e+02
461             	3.11680568e+02
462             	3.11681254e+02
463             	3.11681947e+02
464             	3.11682649e+02
465             	3.11683365e+02
466             	3.11684068e+02
467             	3.11684765e+02
468             	3.11685472e+02
469             	3.11686190e+02
470             	3.11686915e+02
471             	3.11687631e+02
472             	3.11688330e+02
473             	3.11689018e+02
474             	3.11689690e+02
475             	3.11690334e+02
476             	3.11690923e+02
477             	3.11691444e+02
478             	3.11691901e+02
479             	3.11692314e+02
480             	3.11692718e+02
481             	3.11693108e+02
482             	3.11693496e+02
483             	3.11693891e+02
484             	3.11694268e+02
485             	3.11694636e+02
486             	3.11695013e+02
487             	3.11695399e+02
488             	3.11695795e+02
489             	3.11696199e+02
490             	3.11696612e+02
491             	3.11697031e+02
492             	3.11697448e+02
493             	3.11697859e+02
494             	3.11698278e+02
495             	3.11698711e+02
496             	3.11699144e+02
497             	3.11699574e+02
498             	3.11699996e+02
499             	3.11700419e+02
500             	3.11700840e+02
501             	3.11701250e+02
502             	3.11701642e+02
503             	3.11702021e+02
504             	3.11702382e+02
505             	3.11702737e+02
506             	3.11703100e+02
507             	3.11703495e+02
508             	3.11703922e+02
509             	3.11704397e+02
510             	3.11704937e+02
511             	3.11705540e+02
512             	3.11706151e+02
513             	3.11706702e+02
514             	3.11707189e+02
515             	3.11707655e+02
516             	3.11708058e+02
517             	3.11708404e+02
518             	3.11708730e+02
519             	3.11709058e+02
520             	3.11709393e+02
521             	3.11709736e+02
522             	3.11710091e+02
523             	3.11710449e+02
524             	3.11710784e+02
525             	3.11711082e+02
526             	3.11711356e+02
527             	3.11711603e+02
528             	3.11711770e+02
529             	3.11711902e+02
530             	3.11712051e+02
531             	3.11712215e+02
532             	3.11712390e+02
533             	3.11712582e+02
534             	3.11712784e+02
535             	3.11712996e+02
536             	3.11713209e+02
537             	3.11713414e+02
538             	3.11713627e+02
539             	3.11713848e+02
540             	3.11714077e+02
541             	3.11714310e+02
542             	3.11714531e+02
543             	3.11714737e+02
544             	3.11714933e+02
545             	3.11715145e+02
546             	3.11715367e+02
547             	3.11715583e+02
548             	3.11715809e+02
549             	3.11716045e+02
550             	3.11716299e+02
551             	3.11716556e+02
552             	3.11716797e+02
553             	3.11717036e+02
554             	3.11717293e+02
555             	3.11717548e+02
556             	3.11717803e+02
557             	3.11718088e+02
558             	3.11718406e+02
559             	3.11718736e+02
560             	3.11719054e+02
561             	3.11719332e+02
562             	3.11719617e+02
563             	3.11719902e+02
564             	3.11720168e+02
565             	3.11720410e+02
566             	3.11720723e+02
567             	3.11720895e+02
568             	3.11720943e+02
569             	3.11721005e+02
570             	3.11721068e+02
571             	3.11721120e+02
572             	3.11721180e+02
573             	3.11721252e+02
574             	3.11721335e+02
575             	3.11721430e+02
576             	3.11721532e+02
577             	3.11721644e+02
578             	3.11721765e+02
579             	3.11721889e+02
580             	3.11722020e+02
581             	3.11722164e+02
582             	3.11722312e+02
583             	3.11722457e+02
584             	3.11722605e+02
585             	3.11722755e+02
586             	3.11722906e+02
587             	3.11723055e+02
588             	3.11723202e+02
589             	3.11723347e+02
590             	3.11723491e+02
591             	3.11723633e+02
592             	3.11723774e+02
593             	3.11723914e+02
594             	3.11724067e+02
595             	3.11724236e+02
596             	3.11724400e+02
597             	3.11724561e+02
598             	3.11724725e+02
599             	3.11724891e+02
600             	3.11725068e+02
601             	3.11725253e+02
602             	3.11725449e+02
603             	3.11725658e+02
604             	3.11725881e+02
605             	3.11726074e+02
606             	3.11726318e+02
607             	3.11726610e+02
608             	3.11726917e+02
609             	3.11727260e+02
610             	3.11727593e+02
611             	3.11727829e+02
612             	3.11727976e+02
613             	3.11728081e+02
614             	3.11728157e+02
615             	3.11728203e+02
616             	3.11728243e+02
617             	3.11728291e+02
618             	3.11728341e+02
619             	3.11728395e+02
620             	3.11728437e+02
621             	3.11728479e+02
622             	3.11728501e+02
623             	3.11728505e+02
624             	3.11728508e+02
625             	3.11728515e+02
626             	3.11728526e+02
627             	3.11728542e+02
628             	3.11728567e+02
629             	3.11728599e+02
630             	3.11728638e+02
631             	3.11728686e+02
632             	3.11728744e+02
633             	3.11728813e+02
634             	3.11728889e+02
635             	3.11728970e+02
636             	3.11729058e+02
637             	3.11729152e+02
638             	3.11729245e+02
639             	3.11729340e+02
640             	3.11729453e+02
641             	3.11729579e+02
642             	3.11729705e+02
643             	3.11729836e+02
644             	3.11729974e+02
645             	3.11730120e+02
646             	3.11730278e+02
647             	3.11730450e+02
648             	3.11730702e+02
649             	3.11730854e+02
650             	3.11730962e+02
651             	3.11731097e+02
652             	3.11731231e+02
653             	3.11731352e+02
654             	3.11731464e+02
655             	3.11731589e+02
656             	3.11731746e+02
657             	3.11731949e+02
658             	3.11732214e+02
659             	3.11732458e+02
660             	3.11732670e+02
661             	3.11732784e+02
662             	3.11732831e+02
663             	3.11732725e+02
664             	3.11732539e+02
665             	3.11732376e+02
666             	3.11732247e+02
667             	3.11732165e+02
668             	3.11732122e+02
669             	3.11732105e+02
670             	3.11732104e+02
671             	3.11732112e+02
672             	3.11732116e+02
673             	3.11732109e+02
674             	3.11732097e+02
675             	3.11732086e+02
676             	3.11732082e+02
677             	3.11732092e+02
678             	3.11732119e+02
679             	3.11732159e+02
680             	3.11732198e+02
681             	3.11732241e+02
682             	3.11732279e+02
683             	3.11732308e+02
684             	3.11732337e+02
685             	3.11732369e+02
686             	3.11732400e+02
687             	3.11732442e+02
688             	3.11732522e+02
689             	3.11732632e+02
690             	3.11732749e+02
691             	3.11732891e+02
692             	3.11733023e+02
693             	3.11733156e+02
694             	3.11733311e+02
695             	3.11733484e+02
696             	3.11733664e+02
697             	3.11733855e+02
698             	3.11734043e+02
699             	3.11734207e+02
700             	3.11734323e+02
701             	3.11734402e+02
702             	3.11734466e+02
703             	3.11734536e+02
704             	3.11734602e+02
705             	3.11734645e+02
706             	3.11734660e+02
707             	3.11734654e+02
708             	3.11734634e+02
709             	3.11734588e+02
710             	3.11734556e+02
711             	3.11734517e+02
712             	3.11734463e+02
713             	3.11734424e+02
714             	3.11734398e+02
715             	3.11734385e+02
716             	3.11734393e+02
717             	3.11734386e+02
718             	3.11734373e+02
719             	3.11734363e+02
720             	3.11734357e+02
721             	3.11734348e+02
722             	3.11734333e+02
723             	3.11734314e+02
724             	3.11734298e+02
725             	3.11734282e+02
726             	3.11734251e+02
727             	3.11734222e+02
728             	3.11734211e+02
729             	3.11734195e+02
730             	3.11734179e+02
731             	3.11734173e+02
732             	3.11734179e+02
733             	3.11734211e+02
734             	3.11734260e+02
735             	3.11734316e+02
736             	3.11734381e+02
737             	3.11734457e+02
738             	3.11734548e+02
739             	3.11734654e+02
740             	3.11734775e+02
741             	3.11734886e+02
742             	3.11735035e+02
743             	3.11735230e+02
744             	3.11735486e+02
745             	3.11735783e+02
746             	3.11736053e+02
747             	3.11736270e+02
748             	3.11736406e+02
749             	3.11736450e+02
750             	3.11736413e+02
751             	3.11736353e+02
752             	3.11736377e+02
753             	3.11736309e+02
754             	3.11736164e+02
755             	3.11736039e+02
756             	3.11735925e+02
757             	3.11735817e+02
758             	3.11735727e+02
759             	3.11735654e+02
760             	3.11735598e+02
761             	3.11735562e+02
762             	3.11735536e+02
763             	3.11735508e+02
764             	3.11735479e+02
765             	3.11735459e+02
766             	3.11735447e+02
767             	3.11735440e+02
768             	3.11735440e+02
769             	3.11735439e+02
770             	3.11735438e+02
771             	3.11735431e+02
772             	3.11735423e+02
773             	3.11735405e+02
774             	3.11735376e+02
775             	3.11735346e+02
776             	3.11735330e+02
777             	3.11735340e+02
778             	3.11735373e+02
779             	3.11735421e+02
780             	3.11735482e+02
781             	3.11735558e+02
782             	3.11735662e+02
783             	3.11735750e+02
784             	3.11735803e+02
785             	3.11735840e+02
786             	3.11735876e+02
787             	3.11735909e+02
788             	3.11735967e+02
789             	3.11736083e+02
790             	3.11736256e+02
791             	3.11736473e+02
792             	3.11736727e+02
793             	3.11736970e+02
794             	3.11737176e+02
795             	3.11737346e+02
796             	3.11737446e+02
797             	3.11737459e+02
798             	3.11737411e+02
799             	3.11737330e+02
800             	3.11737241e+02
801             	3.11737202e+02
802             	3.11737114e+02
803             	3.11736986e+02
804             	3.11736879e+02
805             	3.11736784e+02
806             	3.11736690e+02
807             	3.11736599e+02
808             	3.11736514e+02
809             	3.11736440e+02
810             	3.11736380e+02
811             	3.11736332e+02
812             	3.11736297e+02
813             	3.11736271e+02
814             	3.11736249e+02
815             	3.11736226e+02
816             	3.11736207e+02
817             	3.11736192e+02
818             	3.11736183e+02
819             	3.11736179e+02
820             	3.11736186e+02
821             	3.11736185e+02
822             	3.11736194e+02
823             	3.11736224e+02
824             	3.11736252e+02
825             	3.11736276e+02
826             	3.11736295e+02
827             	3.11736333e+02
828             	3.11736393e+02
829             	3.11736474e+02
830             	3.11736572e+02
831             	3.11736685e+02
832             	3.11736805e+02
833             	3.11736940e+02
834             	3.11737026e+02
835             	3.11737089e+02
836             	3.11737178e+02
837             	3.11737286e+02
838             	3.11737405e+02
839             	3.11737520e+02
840             	3.11737610e+02
841             	3.11737655e+02
842             	3.11737629e+02
843             	3.11737553e+02
844             	3.11737389e+02
845             	3.11737192e+02
846             	3.11737013e+02
847             	3.11736873e+02
848             	3.11736765e+02
849             	3.11736674e+02
850             	3.11736600e+02
851             	3.11736530e+02
852             	3.11736461e+02
853             	3.11736396e+02
854             	3.11736335e+02
855             	3.11736279e+02
856             	3.11736226e+02
857             	3.11736175e+02
858             	3.11736122e+02
859             	3.11736067e+02
860             	3.11736011e+02
861             	3.11735951e+02
862             	3.11735888e+02
863             	3.11735823e+02
864             	3.11735757e+02
865             	3.11735693e+02
866             	3.11735634e+02
867             	3.11735582e+02
868             	3.11735543e+02
869             	3.11735508e+02
870             	3.11735486e+02
871             	3.11735486e+02
872             	3.11735496e+02
873             	3.11735515e+02
874             	3.11735547e+02
875             	3.11735592e+02
876             	3.11735652e+02
877             	3.11735724e+02
878             	3.11735810e+02
879             	3.11735917e+02
880             	3.11736047e+02
881             	3.11736201e+02
882             	3.11736372e+02
883             	3.11736550e+02
884             	3.11736713e+02
885             	3.11736841e+02
886             	3.11736950e+02
887             	3.11737039e+02
888             	3.11737084e+02
889             	3.11737058e+02
890             	3.11737005e+02
891             	3.11736955e+02
892             	3.11736906e+02
893             	3.11736845e+02
894             	3.11736766e+02
895             	3.11736698e+02
896             	3.11736599e+02
897             	3.11736476e+02
898             	3.11736372e+02
899             	3.11736283e+02
900             	3.11736207e+02
901             	3.11736141e+02
902             	3.11736084e+02
903             	3.11736036e+02
904             	3.11735999e+02
905             	3.11735971e+02
906             	3.11735951e+02
907             	3.11735936e+02
908             	3.11735923e+02
909             	3.11735908e+02
910             	3.11735895e+02
911             	3.11735893e+02
912             	3.11735894e+02
913             	3.11735879e+02
914             	3.11735882e+02
915             	3.11735909e+02
916             	3.11735935e+02
917             	3.11735962e+02
918             	3.11735992e+02
919             	3.11736024e+02
920             	3.11736075e+02
921             	3.11736156e+02
922             	3.11736264e+02
923             	3.11736403e+02
924             	3.11736564e+02
925             	3.11736729e+02
926             	3.11736899e+02
927             	3.11737064e+02
928             	3.11737206e+02
929             	3.11737298e+02
930             	3.11737318e+02
931             	3.11737318e+02
932             	3.11737306e+02
933             	3.11737276e+02