# Region        : cellZone fluid
# Cells         : 8640
# Volume        : 1.63133184e+01
# Time          	volAverage(T)
1               	2.99999927e+02
2               	2.99999927e+02
3               	3.00000054e+02
4               	3.00000255e+02
5               	3.00000430e+02
6               	3.00000640e+02
7               	3.00000854e+02
8               	3.00001197e+02
9               	3.00001464e+02
10              	3.00001851e+02
11              	3.00002226e+02
12              	3.00002691e+02
13              	3.00003239e+02
14              	3.00003869e+02
15              	3.00004659e+02
16              	3.00005378e+02
17              	3.00006075e+02
18              	3.00006739e+02
19              	3.00007552e+02
20              	3.00008309e+02
21              	3.00009059e+02
22              	3.00009725e+02
23              	3.00010245e+02
24              	3.00010721e+02
25              	3.00011377e+02
26              	3.00012092e+02
27              	3.00012803e+02
28              	3.00013514e+02
29              	3.00014219e+02
30              	3.00014988e+02
31              	3.00015801e+02
32              	3.00016674e+02
33              	3.00017553e+02
34              	3.00018502e+02
35              	3.00019459e+02
36              	3.00020392e+02
37              	3.00021477e+02
38              	3.00022891e+02
39              	3.00024145e+02
40              	3.00025141e+02
41              	3.00026475e+02
42              	3.00028104e+02
43              	3.00029277e+02
44              	3.00030504e+02
45              	3.00031585e+02
46              	3.00032465e+02
47              	3.00033489e+02
48              	3.00034912e+02
49              	3.00036187e+02
50              	3.00037439e+02
51              	3.00038465e+02
52              	3.00039609e+02
53              	3.00040508e+02
54              	3.00042012e+02
55              	3.00043788e+02
56              	3.00045343e+02
57              	3.00046653e+02
58              	3.00048074e+02
59              	3.00049231e+02
60              	3.00050278e+02
61              	3.00051132e+02
62              	3.00052375e+02
63              	3.00054080e+02
64              	3.00055493e+02
65              	3.00056746e+02
66              	3.00058023e+02
67              	3.00058780e+02
68              	3.00059795e+02
69              	3.00061425e+02
70              	3.00062748e+02
71              	3.00063917e+02
72              	3.00064912e+02
73              	3.00066328e+02
74              	3.00067452e+02
75              	3.00068674e+02
76              	3.00069418e+02
77              	3.00070633e+02
78              	3.00071903e+02
79              	3.00072994e+02
80              	3.00074210e+02
81              	3.00075527e+02
82              	3.00076708e+02
83              	3.00077584e+02
84              	3.00078394e+02
85              	3.00079350e+02
86              	3.00080054e+02
87              	3.00080908e+02
88              	3.00082107e+02
89              	3.00083492e+02
90              	3.00084304e+02
91              	3.00085360e+02
92              	3.00086609e+02
93              	3.00087462e+02
94              	3.00088218e+02
95              	3.00088859e+02
96              	3.00089986e+02
97              	3.00091001e+02
98              	3.00091676e+02
99              	3.00092550e+02
100             	3.00093757e+02
101             	3.00095073e+02
102             	3.00096362e+02
103             	3.00097937e+02
104             	3.00099053e+02
105             	3.00100076e+02
106             	3.00100825e+02
107             	3.00101301e+02
108             	3.00102508e+02
109             	3.00103458e+02
110             	3.00104648e+02
111             	3.00106064e+02
112             	3.00107110e+02
113             	3.00107960e+02
114             	3.00109022e+02
115             	3.00109882e+02
116             	3.00111171e+02
117             	3.00112431e+02
118             	3.00113095e+02
119             	3.00114146e+02
120             	3.00114960e+02
121             	3.00115678e+02
122             	3.00116450e+02
123             	3.00117532e+02
124             	3.00118231e+02
125             	3.00119189e+02
126             	3.00119916e+02
127             	3.00120664e+02
128             	3.00120959e+02
129             	3.00121544e+02
130             	3.00122060e+02
131             	3.00122494e+02
132             	3.00122899e+02
133             	3.00123553e+02
134             	3.00124393e+02
135             	3.00125182e+02
136             	3.00125761e+02
137             	3.00126446e+02
138             	3.00127208e+02
139             	3.00127742e+02
140             	3.00128069e+02
141             	3.00128401e+02
142             	3.00128710e+02
143             	3.00129093e+02
144             	3.00129533e+02
145             	3.00130227e+02
146             	3.00131206e+02
147             	3.00132281e+02
148             	3.00133307e+02
149             	3.00134038e+02
150             	3.00134442e+02
151             	3.00134739e+02
152             	3.00135715e+02
153             	3.00135798e+02
154             	3.00135919e+02
155             	3.00136135e+02
156             	3.00136605e+02
157             	3.00136996e+02
158             	3.00137658e+02
159             	3.00138291e+02
160             	3.00139069e+02
161             	3.00139685e+02
162             	3.00140220e+02
163             	3.00140690e+02
164             	3.00140756e+02
165             	3.00141094e+02
166             	3.00141451e+02
167             	3.00141658e+02
168             	3.00141966e+02
169             	3.00142596e+02
170             	3.00143347e+02
171             	3.00144612e+02
172             	3.00145259e+02
173             	3.00145697e+02
174             	3.00146010e+02
175             	3.00146524e+02
176             	3.00147036e+02
177             	3.00147136e+02
178             	3.00147422e+02
179             	3.00147503e+02
180             	3.00148130e+02
181             	3.00148571e+02
182             	3.00148940e+02
183             	3.00149383e+02
184             	3.00149876e+02
185             	3.00150611e+02
186             	3.00150757e+02
187             	3.00150940e+02
188             	3.00151066e+02
189             	3.00151390e+02
190             	3.00151626e+02
191             	3.00152003e+02
192             	3.00152515e+02
193             	3.00152892e+02
194             	3.00153692e+02
195             	3.00154425e+02
196             	3.00155076e+02
197             	3.00155416e+02
198             	3.00155850e+02
199             	3.00156175e+02
200             	3.00156480e+02
201             	3.00156720e+02
202             	3.00157299e+02
203             	3.00157712e+02
204             	3.00158141e+02
205             	3.00158486e+02
206             	3.00158767e+02
207             	3.00159163e+02
208             	3.00159549e+02
209             	3.00160027e+02
210             	3.00160482e+02
211             	3.00160951e+02
212             	3.00161348e+02
213             	3.00161794e+02
214             	3.00162046e+02
215             	3.00162121e+02
216             	3.00162693e+02
217             	3.00163198e+02
218             	3.00163575e+02
219             	3.00163977e+02
220             	3.00164278e+02
221             	3.00164962e+02
222             	3.00165318e+02
223             	3.00165792e+02
224             	3.00165958e+02
225             	3.00166199e+02
226             	3.00166598e+02
227             	3.00166668e+02
228             	3.00167126e+02
229             	3.00167740e+02
230             	3.00168385e+02
231             	3.00168818e+02
232             	3.00169197e+02
233             	3.00169433e+02
234             	3.00169712e+02
235             	3.00169950e+02
236             	3.00170133e+02
237             	3.00170274e+02
238             	3.00170465e+02
239             	3.00170712e+02
240             	3.00170971e+02
241             	3.00171195e+02
242             	3.00171434e+02
243             	3.00171700e+02
244             	3.00171930e+02
245             	3.00172137e+02
246             	3.00172381e+02
247             	3.00172576e+02
248             	3.00172831e+02
249             	3.00172967e+02
250             	3.00173145e+02
251             	3.00173355e+02
252             	3.00173588e+02
253             	3.00173859e+02
254             	3.00174193e+02
255             	3.00174459e+02
256             	3.00174912e+02
257             	3.00175258e+02
258             	3.00175575e+02
259             	3.00175900e+02
260             	3.00176160e+02
261             	3.00176408e+02
262             	3.00176661e+02
263             	3.00176912e+02
264             	3.00177158e+02
265             	3.00177429e+02
266             	3.00177783e+02
267             	3.00178120e+02
268             	3.00178468e+02
269             	3.00178755e+02
270             	3.00179051e+02
271             	3.00179405e+02
272             	3.00179760e+02
273             	3.00180096e+02
274             	3.00180361e+02
275             	3.00180724e+02
276             	3.00181040e+02
277             	3.00181344e+02
278             	3.00181601e+02
279             	3.00181890e+02
280             	3.00182138e+02
281             	3.00182376e+02
282             	3.00182423e+02
283             	3.00182826e+02
284             	3.00183182e+02
285             	3.00183494e+02
286             	3.00183772e+02
287             	3.00184180e+02
288             	3.00184360e+02
289             	3.00184477e+02
290             	3.00184702e+02
291             	3.00184817e+02
292             	3.00184956e+02
293             	3.00185082e+02
294             	3.00185194e+02
295             	3.00185340e+02
296             	3.00185487e+02
297             	3.00185638e+02
298             	3.00185787e+02
299             	3.00185929e+02
300             	3.00186066e+02
301             	3.00186196e+02
302             	3.00186326e+02
303             	3.00186464e+02
304             	3.00186621e+02
305             	3.00186783e+02
306             	3.00186938e+02
307             	3.00187098e+02
308             	3.00187277e+02
309             	3.00187469e+02
310             	3.00187651e+02
311             	3.00187829e+02
312             	3.00188023e+02
313             	3.00188151e+02
314             	3.00188261e+02
315             	3.00188505e+02
316             	3.00188748e+02
317             	3.00188963e+02
318             	3.00189170e+02
319             	3.00189381e+02
320             	3.00189578e+02
321             	3.00189754e+02
322             	3.00189941e+02
323             	3.00190206e+02
324             	3.00190346e+02
325             	3.00190655e+02
326             	3.00190823e+02
327             	3.00191024e+02
328             	3.00191232e+02
329             	3.00191459e+02
330             	3.00191720e+02
331             	3.00191963e+02
332             	3.00192161e+02
333             	3.00192306e+02
334             	3.00192312e+02
335             	3.00192603e+02
336             	3.00192851e+02
337             	3.00193061e+02
338             	3.00193256e+02
339             	3.00193492e+02
340             	3.00193823e+02
341             	3.00194109e+02
342             	3.00194237e+02
343             	3.00194377e+02
344             	3.00194514e+02
345             	3.00194695e+02
346             	3.00194910e+02
347             	3.00195006e+02
348             	3.00195123e+02
349             	3.00195259e+02
350             	3.00195505e+02
351             	3.00195686e+02
352             	3.00195826e+02
353             	3.00195880e+02
354             	3.00195901e+02
355             	3.00195885e+02
356             	3.00195971e+02
357             	3.00196249e+02
358             	3.00196234e+02
359             	3.00196292e+02
360             	3.00196389e+02
361             	3.00196541e+02
362             	3.00196701e+02
363             	3.00196855e+02
364             	3.00196952e+02
365             	3.00197074e+02
366             	3.00197164e+02
367             	3.00197090e+02
368             	3.00197097e+02
369             	3.00197336e+02
370             	3.00197520e+02
371             	3.00197642e+02
372             	3.00197914e+02
373             	3.00198168e+02
374             	3.00198253e+02
375             	3.00198285e+02
376             	3.00198381e+02
377             	3.00198489e+02
378             	3.00198661e+02
379             	3.00198563e+02
380             	3.00198700e+02
381             	3.00199015e+02
382             	3.00199198e+02
383             	3.00199310e+02
384             	3.00199386e+02
385             	3.00199419e+02
386             	3.00199524e+02
387             	3.00199817e+02
388             	3.00199860e+02
389             	3.00200080e+02
390             	3.00200184e+02
391             	3.00200298e+02
392             	3.00200432e+02
393             	3.00200587e+02
394             	3.00200728e+02
395             	3.00200865e+02
396             	3.00200994e+02
397             	3.00201130e+02
398             	3.00201243e+02
399             	3.00201363e+02
400             	3.00201475e+02
401             	3.00201537e+02
402             	3.00201541e+02
403             	3.00201566e+02
404             	3.00201659e+02
405             	3.00201732e+02
406             	3.00201764e+02
407             	3.00201757e+02
408             	3.00201723e+02
409             	3.00201742e+02
410             	3.00201803e+02
411             	3.00202029e+02
412             	3.00202107e+02
413             	3.00202148e+02
414             	3.00202216e+02
415             	3.00202305e+02
416             	3.00202395e+02
417             	3.00202500e+02
418             	3.00202628e+02
419             	3.00202733e+02
420             	3.00202696e+02
421             	3.00202789e+02
422             	3.00202812e+02
423             	3.00202756e+02
424             	3.00202874e+02
425             	3.00202968e+02
426             	3.00203045e+02
427             	3.00203124e+02
428             	3.00203197e+02
429             	3.00203418e+02
430             	3.00203515e+02
431             	3.00203507e+02
432             	3.00203579e+02
433             	3.00203680e+02
434             	3.00203805e+02
435             	3.00203938e+02
436             	3.00204069e+02
437             	3.00204198e+02
438             	3.00204328e+02
439             	3.00204454e+02
440             	3.00204575e+02
441             	3.00204681e+02
442             	3.00204787e+02
443             	3.00204885e+02
444             	3.00204935e+02
445             	3.00205085e+02
446             	3.00205168e+02
447             	3.00205268e+02
448             	3.00205390e+02
449             	3.00205504e+02
450             	3.00205592e+02
451             	3.00205683e+02
452             	3.00205764e+02
453             	3.00205819e+02
454             	3.00205836e+02
455             	3.00205827e+02
456             	3.00205823e+02
457             	3.00205802e+02
458             	3.00205768e+02
459             	3.00205759e+02
460             	3.00205764e+02
461             	3.00205819e+02
462             	3.00205848e+02
463             	3.00205923e+02
464             	3.00205924e+02
465             	3.00205946e+02
466             	3.00205969e+02
467             	3.00206021e+02
468             	3.00206076e+02
469             	3.00206153e+02
470             	3.00206242e+02
471             	3.00206247e+02
472             	3.00206337e+02
473             	3.00206440e+02
474             	3.00206525e+02
475             	3.00206613e+02
476             	3.00206700e+02
477             	3.00206784e+02
478             	3.00206864e+02
479             	3.00206952e+02
480             	3.00207058e+02
481             	3.00207128e+02
482             	3.00207205e+02
483             	3.00207296e+02
484             	3.00207398e+02
485             	3.00207531e+02
486             	3.00207618e+02
487             	3.00207751e+02
488             	3.00207812e+02
489             	3.00207873e+02
490             	3.00207922e+02
491             	3.00207947e+02
492             	3.00207976e+02
493             	3.00208012e+02
494             	3.00208054e+02
495             	3.00208102e+02
496             	3.00208161e+02
497             	3.00208217e+02
498             	3.00208253e+02
499             	3.00208275e+02
500             	3.00208336e+02
501             	3.00208365e+02
502             	3.00208339e+02
503             	3.00208400e+02
504             	3.00208471e+02
505             	3.00208526e+02
506             	3.00208533e+02
507             	3.00208539e+02
508             	3.00208527e+02
509             	3.00208513e+02
510             	3.00208496e+02
511             	3.00208509e+02
512             	3.00208516e+02
513             	3.00208528e+02
514             	3.00208531e+02
515             	3.00208542e+02
516             	3.00208561e+02
517             	3.00208593e+02
518             	3.00208598e+02
519             	3.00208634e+02
520             	3.00208661e+02
521             	3.00208701e+02
522             	3.00208750e+02
523             	3.00208790e+02
524             	3.00208856e+02
525             	3.00208929e+02
526             	3.00209001e+02
527             	3.00209023e+02
528             	3.00209113e+02
529             	3.00209188e+02
530             	3.00209249e+02
531             	3.00209306e+02
532             	3.00209389e+02
533             	3.00209457e+02
534             	3.00209530e+02
535             	3.00209606e+02
536             	3.00209699e+02
537             	3.00209792e+02
538             	3.00209878e+02
539             	3.00209942e+02
540             	3.00209995e+02
541             	3.00210054e+02
542             	3.00210096e+02
543             	3.00210144e+02
544             	3.00210186e+02
545             	3.00210237e+02
546             	3.00210259e+02
547             	3.00210283e+02
548             	3.00210305e+02
549             	3.00210338e+02
550             	3.00210359e+02
551             	3.00210364e+02
552             	3.00210386e+02
553             	3.00210399e+02
554             	3.00210405e+02
555             	3.00210410e+02
556             	3.00210423e+02
557             	3.00210426e+02
558             	3.00210461e+02
559             	3.00210491e+02
560             	3.00210511e+02
561             	3.00210542e+02
562             	3.00210578e+02
563             	3.00210594e+02
564             	3.00210632e+02
565             	3.00210662e+02
566             	3.00210691e+02
567             	3.00210717e+02
568             	3.00210743e+02
569             	3.00210767e+02
570             	3.00210790e+02
571             	3.00210802e+02
572             	3.00210817e+02
573             	3.00210832e+02
574             	3.00210847e+02
575             	3.00210873e+02
576             	3.00210888e+02
577             	3.00210933e+02
578             	3.00210983e+02
579             	3.00211008e+02
580             	3.00211044e+02
581             	3.00211081e+02
582             	3.00211122e+02
583             	3.00211167e+02
584             	3.00211217e+02
585             	3.00211290e+02
586             	3.00211352e+02
587             	3.00211424e+02
588             	3.00211483e+02
589             	3.00211534e+02
590             	3.00211577e+02
591             	3.00211615e+02
592             	3.00211649e+02
593             	3.00211676e+02
594             	3.00211709e+02
595             	3.00211740e+02
596             	3.00211771e+02
597             	3.00211798e+02
598             	3.00211821e+02
599             	3.00211828e+02
600             	3.00211828e+02
601             	3.00211839e+02
602             	3.00211822e+02
603             	3.00211806e+02
604             	3.00211801e+02
605             	3.00211787e+02
606             	3.00211779e+02
607             	3.00211768e+02
608             	3.00211750e+02
609             	3.00211746e+02
610             	3.00211740e+02
611             	3.00211735e+02
612             	3.00211725e+02
613             	3.00211711e+02
614             	3.00211706e+02
615             	3.00211663e+02
616             	3.00211687e+02
617             	3.00211712e+02
618             	3.00211723e+02
619             	3.00211735e+02
620             	3.00211751e+02
621             	3.00211772e+02
622             	3.00211798e+02
623             	3.00211825e+02
624             	3.00211855e+02
625             	3.00211873e+02
626             	3.00211895e+02
627             	3.00211920e+02
628             	3.00211951e+02
629             	3.00211993e+02
630             	3.00212028e+02
631             	3.00212079e+02
632             	3.00212112e+02
633             	3.00212152e+02
634             	3.00212216e+02
635             	3.00212240e+02
636             	3.00212265e+02
637             	3.00212304e+02
638             	3.00212332e+02
639             	3.00212355e+02
640             	3.00212375e+02
641             	3.00212394e+02
642             	3.00212411e+02
643             	3.00212424e+02
644             	3.00212452e+02
645             	3.00212464e+02
646             	3.00212468e+02
647             	3.00212477e+02
648             	3.00212481e+02
649             	3.00212477e+02
650             	3.00212472e+02
651             	3.00212462e+02
652             	3.00212445e+02
653             	3.00212440e+02
654             	3.00212434e+02
655             	3.00212427e+02
656             	3.00212419e+02
657             	3.00212410e+02
658             	3.00212395e+02
659             	3.00212381e+02
660             	3.00212373e+02
661             	3.00212367e+02
662             	3.00212362e+02
663             	3.00212356e+02
664             	3.00212372e+02
665             	3.00212395e+02
666             	3.00212411e+02
667             	3.00212419e+02
668             	3.00212434e+02
669             	3.00212455e+02
670             	3.00212479e+02
671             	3.00212502e+02
672             	3.00212526e+02
673             	3.00212550e+02
674             	3.00212585e+02
675             	3.00212618e+02
676             	3.00212652e+02
677             	3.00212652e+02
678             	3.00212708e+02
679             	3.00212750e+02
680             	3.00212790e+02
681             	3.00212829e+02
682             	3.00212876e+02
683             	3.00212926e+02
684             	3.00212980e+02
685             	3.00213033e+02
686             	3.00213056e+02
687             	3.00213057e+02
688             	3.00213066e+02
689             	3.00213086e+02
690             	3.00213105e+02
691             	3.00213120e+02
692             	3.00213128e+02
693             	3.00213129e+02
694             	3.00213141e+02
695             	3.00213160e+02
696             	3.00213168e+02
697             	3.00213162e+02
698             	3.00213150e+02
699             	3.00213140e+02
700             	3.00213123e+02
701             	3.00213103e+02
702             	3.00213070e+02
703             	3.00213012e+02
704             	3.00213027e+02
705             	3.00213034e+02
706             	3.00213033e+02
707             	3.00213015e+02
708             	3.00213015e+02
709             	3.00213012e+02
710             	3.00212977e+02
711             	3.00212972e+02
712             	3.00212928e+02
713             	3.00212893e+02
714             	3.00212878e+02
715             	3.00212879e+02
716             	3.00212895e+02
717             	3.00212923e+02
718             	3.00212941e+02
719             	3.00212957e+02
720             	3.00212973e+02
721             	3.00212997e+02
722             	3.00213027e+02
723             	3.00213058e+02
724             	3.00213099e+02
725             	3.00213134e+02
726             	3.00213155e+02
727             	3.00213196e+02
728             	3.00213252e+02
729             	3.00213312e+02
730             	3.00213360e+02
731             	3.00213410e+02
732             	3.00213457e+02
733             	3.00213501e+02
734             	3.00213542e+02
735             	3.00213580e+02
736             	3.00213607e+02
737             	3.00213628e+02
738             	3.00213640e+02
739             	3.00213641e+02
740             	3.00213638e+02
741             	3.00213645e+02
742             	3.00213641e+02
743             	3.00213638e+02
744             	3.00213656e+02
745             	3.00213666e+02
746             	3.00213619e+02
747             	3.00213590e+02
748             	3.00213566e+02
749             	3.00213543e+02
750             	3.00213525e+02
751             	3.00213513e+02
752             	3.00213486e+02
753             	3.00213494e+02
754             	3.00213470e+02
755             	3.00213477e+02
756             	3.00213468e+02
757             	3.00213446e+02
758             	3.00213428e+02
759             	3.00213422e+02
760             	3.00213420e+02
761             	3.00213422e+02
762             	3.00213424e+02
763             	3.00213416e+02
764             	3.00213417e+02
765             	3.00213422e+02
766             	3.00213433e+02
767             	3.00213432e+02
768             	3.00213442e+02
769             	3.00213456e+02
770             	3.00213472e+02
771             	3.00213486e+02
772             	3.00213500e+02
773             	3.00213525e+02
774             	3.00213582e+02
775             	3.00213557e+02
776             	3.00213546e+02
777             	3.00213539e+02
778             	3.00213535e+02
779             	3.00213535e+02
780             	3.00213562e+02
781             	3.00213586e+02
782             	3.00213616e+02
783             	3.00213617e+02
784             	3.00213688e+02
785             	3.00213746e+02
786             	3.00213808e+02
787             	3.00213851e+02
788             	3.00213866e+02
789             	3.00213916e+02
790             	3.00213933e+02
791             	3.00213936e+02
792             	3.00213932e+02
793             	3.00213940e+02
794             	3.00213923e+02
795             	3.00213906e+02
796             	3.00213895e+02
797             	3.00213870e+02
798             	3.00213867e+02
799             	3.00213832e+02
800             	3.00213808e+02
801             	3.00213852e+02
802             	3.00213811e+02
803             	3.00213780e+02
804             	3.00213768e+02
805             	3.00213770e+02
806             	3.00213763e+02
807             	3.00213753e+02
808             	3.00213689e+02
809             	3.00213693e+02
810             	3.00213662e+02
811             	3.00213617e+02
812             	3.00213668e+02
813             	3.00213706e+02
814             	3.00213728e+02
815             	3.00213748e+02
816             	3.00213760e+02
817             	3.00213788e+02
818             	3.00213830e+02
819             	3.00213800e+02
820             	3.00213816e+02
821             	3.00213791e+02
822             	3.00213785e+02
823             	3.00213796e+02
824             	3.00213816e+02
825             	3.00213846e+02
826             	3.00213878e+02
827             	3.00213908e+02
828             	3.00213933e+02
829             	3.00213957e+02
830             	3.00213978e+02
831             	3.00214001e+02
832             	3.00214025e+02
833             	3.00214048e+02
834             	3.00214063e+02
835             	3.00214076e+02
836             	3.00214091e+02
837             	3.00214112e+02
838             	3.00214140e+02
839             	3.00214150e+02
840             	3.00214167e+02
841             	3.00214192e+02
842             	3.00214205e+02
843             	3.00214197e+02
844             	3.00214175e+02
845             	3.00214164e+02
846             	3.00214176e+02
847             	3.00214182e+02
848             	3.00214161e+02
849             	3.00214148e+02
850             	3.00214122e+02
851             	3.00214092e+02
852             	3.00214053e+02
853             	3.00214001e+02
854             	3.00213946e+02
855             	3.00213897e+02
856             	3.00213870e+02
857             	3.00213856e+02
858             	3.00213855e+02
859             	3.00213836e+02
860             	3.00213821e+02
861             	3.00213781e+02
862             	3.00213768e+02
863             	3.00213766e+02
864             	3.00213769e+02
865             	3.00213783e+02
866             	3.00213773e+02
867             	3.00213768e+02
868             	3.00213767e+02
869             	3.00213771e+02
870             	3.00213791e+02
871             	3.00213811e+02
872             	3.00213846e+02
873             	3.00213873e+02
874             	3.00213912e+02
875             	3.00213958e+02
876             	3.00214008e+02
877             	3.00214050e+02
878             	3.00214077e+02
879             	3.00214117e+02
880             	3.00214143e+02
881             	3.00214161e+02
882             	3.00214172e+02
883             	3.00214189e+02
884             	3.00214194e+02
885             	3.00214198e+02
886             	3.00214195e+02
887             	3.00214190e+02
888             	3.00214188e+02
889             	3.00214176e+02
890             	3.00214164e+02
891             	3.00214154e+02
892             	3.00214141e+02
893             	3.00214124e+02
894             	3.00214097e+02
895             	3.00214081e+02
896             	3.00214054e+02
897             	3.00214035e+02
898             	3.00214015e+02
899             	3.00213989e+02
900             	3.00213972e+02
901             	3.00213956e+02
902             	3.00213940e+02
903             	3.00213918e+02
904             	3.00213901e+02
905             	3.00213889e+02
906             	3.00213877e+02
907             	3.00213867e+02
908             	3.00213856e+02
909             	3.00213846e+02
910             	3.00213849e+02
911             	3.00213861e+02
912             	3.00213879e+02
913             	3.00213890e+02
914             	3.00213861e+02
915             	3.00213878e+02
916             	3.00213887e+02
917             	3.00213889e+02
918             	3.00213889e+02
919             	3.00213885e+02
920             	3.00213878e+02
921             	3.00213876e+02
922             	3.00213880e+02
923             	3.00213875e+02
924             	3.00213872e+02
925             	3.00213877e+02
926             	3.00213887e+02
927             	3.00213904e+02
928             	3.00213908e+02
929             	3.00213918e+02
930             	3.00213932e+02
931             	3.00213943e+02
932             	3.00213953e+02
933             	3.00213962e+02