# Region        : cellZone component_3
# Cells         : 96
# Volume        : 1.52964979e-01
# Time          	volAverage(T)
1               	3.00605317e+02
2               	3.01204932e+02
3               	3.01770740e+02
4               	3.02317658e+02
5               	3.02855161e+02
6               	3.03385902e+02
7               	3.03912231e+02
8               	3.04437714e+02
9               	3.04961871e+02
10              	3.05478183e+02
11              	3.05984219e+02
12              	3.06481255e+02
13              	3.06964505e+02
14              	3.07433808e+02
15              	3.07898004e+02
16              	3.08354001e+02
17              	3.08807871e+02
18              	3.09264366e+02
19              	3.09716598e+02
20              	3.10166026e+02
21              	3.10615170e+02
22              	3.11047949e+02
23              	3.11461920e+02
24              	3.11870829e+02
25              	3.12265936e+02
26              	3.12665885e+02
27              	3.13071304e+02
28              	3.13469721e+02
29              	3.13843771e+02
30              	3.14208751e+02
31              	3.14565962e+02
32              	3.14893791e+02
33              	3.15203451e+02
34              	3.15501282e+02
35              	3.15787306e+02
36              	3.16062559e+02
37              	3.16370241e+02
38              	3.16673985e+02
39              	3.16968964e+02
40              	3.17253019e+02
41              	3.17533356e+02
42              	3.17810915e+02
43              	3.18089536e+02
44              	3.18375327e+02
45              	3.18663457e+02
46              	3.18965009e+02
47              	3.19276837e+02
48              	3.19573611e+02
49              	3.19858584e+02
50              	3.20122295e+02
51              	3.20373724e+02
52              	3.20630746e+02
53              	3.20912308e+02
54              	3.21174949e+02
55              	3.21426782e+02
56              	3.21680496e+02
57              	3.21930370e+02
58              	3.22182380e+02
59              	3.22430766e+02
60              	3.22699646e+02
61              	3.22940218e+02
62              	3.23155133e+02
63              	3.23341750e+02
64              	3.23524728e+02
65              	3.23718602e+02
66              	3.23930737e+02
67              	3.24167556e+02
68              	3.24395874e+02
69              	3.24613586e+02
70              	3.24813631e+02
71              	3.25028359e+02
72              	3.25228340e+02
73              	3.25452823e+02
74              	3.25669783e+02
75              	3.25882939e+02
76              	3.26105560e+02
77              	3.26311287e+02
78              	3.26519074e+02
79              	3.26739460e+02
80              	3.26964561e+02
81              	3.27186600e+02
82              	3.27391402e+02
83              	3.27597909e+02
84              	3.27808850e+02
85              	3.28018933e+02
86              	3.28212803e+02
87              	3.28415512e+02
88              	3.28606223e+02
89              	3.28801062e+02
90              	3.28991697e+02
91              	3.29190627e+02
92              	3.29394214e+02
93              	3.29597485e+02
94              	3.29798747e+02
95              	3.29997055e+02
96              	3.30193155e+02
97              	3.30384341e+02
98              	3.30565425e+02
99              	3.30741279e+02
100             	3.30909341e+02
101             	3.31075169e+02
102             	3.31241886e+02
103             	3.31408075e+02
104             	3.31571528e+02
105             	3.31741279e+02
106             	3.31913340e+02
107             	3.32087320e+02
108             	3.32263538e+02
109             	3.32441289e+02
110             	3.32612743e+02
111             	3.32785035e+02
112             	3.32950231e+02
113             	3.33111742e+02
114             	3.33272766e+02
115             	3.33433322e+02
116             	3.33589952e+02
117             	3.33739730e+02
118             	3.33884243e+02
119             	3.34027667e+02
120             	3.34164357e+02
121             	3.34303191e+02
122             	3.34443278e+02
123             	3.34578636e+02
124             	3.34713513e+02
125             	3.34851729e+02
126             	3.34991315e+02
127             	3.35138291e+02
128             	3.35284217e+02
129             	3.35417248e+02
130             	3.35544563e+02
131             	3.35668376e+02
132             	3.35790310e+02
133             	3.35905633e+02
134             	3.36016873e+02
135             	3.36125256e+02
136             	3.36231244e+02
137             	3.36336040e+02
138             	3.36433372e+02
139             	3.36535130e+02
140             	3.36640922e+02
141             	3.36753204e+02
142             	3.36869317e+02
143             	3.36983609e+02
144             	3.37095663e+02
145             	3.37210808e+02
146             	3.37324877e+02
147             	3.37439466e+02
148             	3.37549526e+02
149             	3.37651716e+02
150             	3.37755141e+02
151             	3.37861538e+02
152             	3.37969785e+02
153             	3.38079887e+02
154             	3.38183961e+02
155             	3.38290350e+02
156             	3.38398537e+02
157             	3.38499132e+02
158             	3.38596940e+02
159             	3.38697752e+02
160             	3.38797925e+02
161             	3.38897071e+02
162             	3.38994347e+02
163             	3.39093779e+02
164             	3.39186607e+02
165             	3.39286194e+02
166             	3.39378722e+02
167             	3.39472437e+02
168             	3.39558739e+02
169             	3.39646488e+02
170             	3.39731124e+02
171             	3.39814144e+02
172             	3.39886333e+02
173             	3.39964199e+02
174             	3.40035851e+02
175             	3.40096749e+02
176             	3.40163946e+02
177             	3.40239973e+02
178             	3.40316452e+02
179             	3.40395616e+02
180             	3.40472986e+02
181             	3.40549532e+02
182             	3.40624532e+02
183             	3.40702029e+02
184             	3.40769751e+02
185             	3.40835157e+02
186             	3.40901027e+02
187             	3.40967144e+02
188             	3.41033396e+02
189             	3.41099458e+02
190             	3.41163028e+02
191             	3.41224952e+02
192             	3.41288537e+02
193             	3.41353016e+02
194             	3.41418141e+02
195             	3.41484725e+02
196             	3.41541292e+02
197             	3.41602207e+02
198             	3.41663826e+02
199             	3.41724586e+02
200             	3.41783558e+02
201             	3.41841534e+02
202             	3.41897165e+02
203             	3.41950140e+02
204             	3.42004109e+02
205             	3.42059258e+02
206             	3.42111819e+02
207             	3.42167364e+02
208             	3.42224286e+02
209             	3.42280285e+02
210             	3.42335685e+02
211             	3.42390028e+02
212             	3.42442787e+02
213             	3.42495544e+02
214             	3.42549603e+02
215             	3.42599874e+02
216             	3.42650304e+02
217             	3.42701236e+02
218             	3.42751009e+02
219             	3.42800108e+02
220             	3.42849293e+02
221             	3.42886755e+02
222             	3.42931364e+02
223             	3.42977390e+02
224             	3.43019838e+02
225             	3.43058347e+02
226             	3.43100104e+02
227             	3.43141981e+02
228             	3.43186637e+02
229             	3.43229519e+02
230             	3.43272439e+02
231             	3.43313769e+02
232             	3.43355171e+02
233             	3.43395779e+02
234             	3.43435485e+02
235             	3.43465108e+02
236             	3.43497920e+02
237             	3.43530918e+02
238             	3.43565222e+02
239             	3.43598555e+02
240             	3.43635609e+02
241             	3.43673287e+02
242             	3.43710731e+02
243             	3.43747771e+02
244             	3.43784549e+02
245             	3.43820863e+02
246             	3.43854566e+02
247             	3.43886215e+02
248             	3.43916706e+02
249             	3.43947622e+02
250             	3.43977750e+02
251             	3.44006324e+02
252             	3.44034584e+02
253             	3.44062583e+02
254             	3.44090698e+02
255             	3.44117555e+02
256             	3.44146041e+02
257             	3.44174482e+02
258             	3.44202616e+02
259             	3.44230749e+02
260             	3.44258424e+02
261             	3.44284560e+02
262             	3.44309613e+02
263             	3.44334002e+02
264             	3.44360202e+02
265             	3.44385498e+02
266             	3.44408061e+02
267             	3.44431237e+02
268             	3.44455413e+02
269             	3.44480554e+02
270             	3.44505921e+02
271             	3.44531122e+02
272             	3.44555647e+02
273             	3.44580100e+02
274             	3.44604348e+02
275             	3.44628755e+02
276             	3.44652624e+02
277             	3.44675425e+02
278             	3.44697437e+02
279             	3.44718894e+02
280             	3.44740644e+02
281             	3.44761975e+02
282             	3.44782218e+02
283             	3.44802215e+02
284             	3.44822635e+02
285             	3.44843160e+02
286             	3.44862977e+02
287             	3.44882867e+02
288             	3.44903425e+02
289             	3.44923344e+02
290             	3.44944072e+02
291             	3.44965242e+02
292             	3.44986139e+02
293             	3.45004832e+02
294             	3.45024570e+02
295             	3.45041882e+02
296             	3.45058599e+02
297             	3.45075645e+02
298             	3.45093080e+02
299             	3.45111041e+02
300             	3.45128947e+02
301             	3.45144899e+02
302             	3.45162743e+02
303             	3.45181280e+02
304             	3.45200050e+02
305             	3.45218896e+02
306             	3.45237698e+02
307             	3.45256267e+02
308             	3.45274627e+02
309             	3.45292959e+02
310             	3.45310635e+02
311             	3.45328094e+02
312             	3.45345389e+02
313             	3.45362534e+02
314             	3.45378770e+02
315             	3.45392930e+02
316             	3.45408364e+02
317             	3.45424238e+02
318             	3.45439772e+02
319             	3.45454585e+02
320             	3.45469479e+02
321             	3.45483894e+02
322             	3.45497480e+02
323             	3.45509942e+02
324             	3.45522736e+02
325             	3.45535341e+02
326             	3.45547620e+02
327             	3.45559483e+02
328             	3.45570902e+02
329             	3.45581959e+02
330             	3.45592745e+02
331             	3.45604119e+02
332             	3.45614454e+02
333             	3.45624726e+02
334             	3.45635291e+02
335             	3.45646080e+02
336             	3.45656432e+02
337             	3.45667116e+02
338             	3.45678007e+02
339             	3.45689123e+02
340             	3.45699781e+02
341             	3.45710262e+02
342             	3.45720709e+02
343             	3.45731097e+02
344             	3.45741402e+02
345             	3.45751672e+02
346             	3.45761961e+02
347             	3.45772340e+02
348             	3.45782795e+02
349             	3.45791913e+02
350             	3.45802275e+02
351             	3.45813191e+02
352             	3.45824086e+02
353             	3.45834865e+02
354             	3.45845414e+02
355             	3.45854854e+02
356             	3.45864506e+02
357             	3.45874219e+02
358             	3.45883697e+02
359             	3.45892571e+02
360             	3.45900827e+02
361             	3.45908505e+02
362             	3.45915644e+02
363             	3.45922247e+02
364             	3.45928352e+02
365             	3.45934023e+02
366             	3.45939337e+02
367             	3.45944336e+02
368             	3.45948976e+02
369             	3.45953449e+02
370             	3.45957741e+02
371             	3.45962033e+02
372             	3.45966063e+02
373             	3.45970479e+02
374             	3.45974523e+02
375             	3.45978670e+02
376             	3.45983159e+02
377             	3.45987924e+02
378             	3.45992825e+02
379             	3.45998073e+02
380             	3.46003733e+02
381             	3.46009802e+02
382             	3.46016247e+02
383             	3.46023060e+02
384             	3.46030198e+02
385             	3.46037647e+02
386             	3.46043942e+02
387             	3.46051418e+02
388             	3.46059301e+02
389             	3.46067189e+02
390             	3.46074921e+02
391             	3.46082447e+02
392             	3.46089752e+02
393             	3.46096850e+02
394             	3.46103904e+02
395             	3.46110626e+02
396             	3.46116924e+02
397             	3.46122980e+02
398             	3.46128821e+02
399             	3.46134431e+02
400             	3.46139803e+02
401             	3.46144936e+02
402             	3.46149858e+02
403             	3.46154615e+02
404             	3.46159247e+02
405             	3.46163829e+02
406             	3.46168325e+02
407             	3.46172451e+02
408             	3.46176751e+02
409             	3.46181066e+02
410             	3.46185330e+02
411             	3.46189558e+02
412             	3.46193799e+02
413             	3.46198234e+02
414             	3.46202555e+02
415             	3.46206890e+02
416             	3.46211279e+02
417             	3.46215858e+02
418             	3.46220182e+02
419             	3.46224359e+02
420             	3.46228377e+02
421             	3.46232509e+02
422             	3.46236325e+02
423             	3.46239808e+02
424             	3.46243143e+02
425             	3.46245052e+02
426             	3.46247800e+02
427             	3.46250745e+02
428             	3.46253602e+02
429             	3.46256476e+02
430             	3.46259281e+02
431             	3.46261778e+02
432             	3.46264079e+02
433             	3.46266405e+02
434             	3.46268958e+02
435             	3.46271682e+02
436             	3.46274555e+02
437             	3.46277588e+02
438             	3.46280789e+02
439             	3.46282931e+02
440             	3.46286190e+02
441             	3.46289898e+02
442             	3.46293746e+02
443             	3.46297951e+02
444             	3.46302364e+02
445             	3.46305856e+02
446             	3.46309193e+02
447             	3.46312591e+02
448             	3.46316025e+02
449             	3.46319461e+02
450             	3.46322898e+02
451             	3.46326352e+02
452             	3.46329884e+02
453             	3.46333482e+02
454             	3.46337177e+02
455             	3.46338727e+02
456             	3.46341778e+02
457             	3.46345289e+02
458             	3.46348732e+02
459             	3.46351968e+02
460             	3.46355541e+02
461             	3.46359336e+02
462             	3.46361840e+02
463             	3.46364224e+02
464             	3.46366863e+02
465             	3.46370096e+02
466             	3.46373019e+02
467             	3.46375897e+02
468             	3.46378828e+02
469             	3.46381807e+02
470             	3.46384783e+02
471             	3.46387672e+02
472             	3.46390373e+02
473             	3.46392794e+02
474             	3.46394935e+02
475             	3.46396682e+02
476             	3.46397721e+02
477             	3.46398789e+02
478             	3.46399615e+02
479             	3.46399674e+02
480             	3.46399971e+02
481             	3.46400206e+02
482             	3.46400386e+02
483             	3.46400585e+02
484             	3.46400907e+02
485             	3.46401472e+02
486             	3.46402258e+02
487             	3.46403254e+02
488             	3.46404121e+02
489             	3.46405614e+02
490             	3.46407393e+02
491             	3.46409040e+02
492             	3.46410655e+02
493             	3.46412265e+02
494             	3.46414635e+02
495             	3.46416213e+02
496             	3.46417620e+02
497             	3.46419162e+02
498             	3.46420729e+02
499             	3.46422016e+02
500             	3.46423645e+02
501             	3.46425366e+02
502             	3.46427083e+02
503             	3.46429103e+02
504             	3.46431156e+02
505             	3.46433111e+02
506             	3.46435005e+02
507             	3.46437371e+02
508             	3.46439241e+02
509             	3.46440996e+02
510             	3.46442888e+02
511             	3.46444794e+02
512             	3.46446636e+02
513             	3.46448350e+02
514             	3.46449951e+02
515             	3.46451884e+02
516             	3.46453260e+02
517             	3.46453625e+02
518             	3.46454762e+02
519             	3.46456352e+02
520             	3.46457918e+02
521             	3.46459034e+02
522             	3.46460460e+02
523             	3.46461990e+02
524             	3.46463488e+02
525             	3.46464696e+02
526             	3.46465651e+02
527             	3.46466686e+02
528             	3.46467741e+02
529             	3.46468808e+02
530             	3.46469730e+02
531             	3.46470717e+02
532             	3.46471844e+02
533             	3.46473127e+02
534             	3.46474596e+02
535             	3.46476328e+02
536             	3.46478267e+02
537             	3.46480281e+02
538             	3.46482330e+02
539             	3.46484435e+02
540             	3.46486026e+02
541             	3.46487863e+02
542             	3.46489622e+02
543             	3.46491133e+02
544             	3.46492348e+02
545             	3.46493416e+02
546             	3.46494613e+02
547             	3.46495327e+02
548             	3.46495924e+02
549             	3.46496562e+02
550             	3.46497183e+02
551             	3.46497662e+02
552             	3.46498390e+02
553             	3.46499076e+02
554             	3.46499596e+02
555             	3.46499947e+02
556             	3.46500143e+02
557             	3.46500097e+02
558             	3.46499907e+02
559             	3.46499636e+02
560             	3.46499337e+02
561             	3.46499061e+02
562             	3.46498866e+02
563             	3.46498781e+02
564             	3.46498811e+02
565             	3.46498561e+02
566             	3.46498770e+02
567             	3.46499065e+02
568             	3.46499477e+02
569             	3.46499882e+02
570             	3.46500263e+02
571             	3.46500614e+02
572             	3.46500932e+02
573             	3.46501233e+02
574             	3.46501513e+02
575             	3.46501748e+02
576             	3.46501866e+02
577             	3.46501731e+02
578             	3.46501654e+02
579             	3.46501501e+02
580             	3.46501218e+02
581             	3.46500905e+02
582             	3.46500641e+02
583             	3.46500763e+02
584             	3.46501415e+02
585             	3.46502334e+02
586             	3.46502055e+02
587             	3.46502017e+02
588             	3.46502221e+02
589             	3.46502042e+02
590             	3.46502511e+02
591             	3.46503366e+02
592             	3.46505076e+02
593             	3.46506783e+02
594             	3.46508207e+02
595             	3.46509554e+02
596             	3.46510179e+02
597             	3.46510580e+02
598             	3.46510769e+02
599             	3.46510814e+02
600             	3.46510753e+02
601             	3.46510439e+02
602             	3.46510079e+02
603             	3.46509863e+02
604             	3.46509909e+02
605             	3.46510116e+02
606             	3.46509816e+02
607             	3.46510110e+02
608             	3.46510613e+02
609             	3.46510971e+02
610             	3.46511160e+02
611             	3.46511299e+02
612             	3.46511214e+02
613             	3.46511244e+02
614             	3.46511053e+02
615             	3.46510996e+02
616             	3.46511204e+02
617             	3.46510581e+02
618             	3.46509745e+02
619             	3.46508932e+02
620             	3.46508098e+02
621             	3.46507219e+02
622             	3.46506235e+02
623             	3.46505201e+02
624             	3.46504200e+02
625             	3.46503149e+02
626             	3.46502016e+02
627             	3.46500815e+02
628             	3.46499561e+02
629             	3.46498261e+02
630             	3.46496927e+02
631             	3.46495565e+02
632             	3.46494184e+02
633             	3.46492807e+02
634             	3.46491420e+02
635             	3.46490503e+02
636             	3.46489346e+02
637             	3.46488246e+02
638             	3.46487351e+02
639             	3.46486695e+02
640             	3.46486287e+02
641             	3.46486105e+02
642             	3.46486083e+02
643             	3.46486195e+02
644             	3.46485876e+02
645             	3.46486493e+02
646             	3.46487429e+02
647             	3.46488314e+02
648             	3.46489620e+02
649             	3.46490272e+02
650             	3.46490795e+02
651             	3.46491461e+02
652             	3.46492263e+02
653             	3.46493274e+02
654             	3.46494220e+02
655             	3.46495255e+02
656             	3.46496413e+02
657             	3.46497614e+02
658             	3.46498976e+02
659             	3.46500413e+02
660             	3.46501872e+02
661             	3.46503337e+02
662             	3.46504793e+02
663             	3.46506204e+02
664             	3.46507534e+02
665             	3.46508754e+02
666             	3.46509853e+02
667             	3.46510818e+02
668             	3.46511639e+02
669             	3.46512309e+02
670             	3.46512819e+02
671             	3.46513169e+02
672             	3.46513326e+02
673             	3.46514086e+02
674             	3.46513950e+02
675             	3.46513700e+02
676             	3.46513566e+02
677             	3.46513420e+02
678             	3.46513609e+02
679             	3.46513934e+02
680             	3.46513205e+02
681             	3.46513414e+02
682             	3.46513963e+02
683             	3.46514544e+02
684             	3.46515077e+02
685             	3.46515098e+02
686             	3.46515430e+02
687             	3.46515766e+02
688             	3.46515981e+02
689             	3.46516094e+02
690             	3.46516165e+02
691             	3.46516281e+02
692             	3.46516499e+02
693             	3.46516833e+02
694             	3.46517315e+02
695             	3.46517956e+02
696             	3.46518867e+02
697             	3.46519992e+02
698             	3.46521346e+02
699             	3.46522884e+02
700             	3.46524626e+02
701             	3.46525942e+02
702             	3.46527698e+02
703             	3.46529521e+02
704             	3.46531230e+02
705             	3.46532780e+02
706             	3.46534134e+02
707             	3.46535202e+02
708             	3.46537073e+02
709             	3.46537776e+02
710             	3.46538085e+02
711             	3.46538343e+02
712             	3.46538470e+02
713             	3.46538408e+02
714             	3.46538132e+02
715             	3.46537657e+02
716             	3.46537018e+02
717             	3.46536227e+02
718             	3.46535309e+02
719             	3.46534261e+02
720             	3.46532981e+02
721             	3.46531509e+02
722             	3.46530099e+02
723             	3.46528582e+02
724             	3.46527300e+02
725             	3.46525637e+02
726             	3.46523837e+02
727             	3.46522034e+02
728             	3.46520246e+02
729             	3.46518489e+02
730             	3.46516831e+02
731             	3.46515077e+02
732             	3.46513777e+02
733             	3.46512746e+02
734             	3.46511947e+02
735             	3.46511395e+02
736             	3.46511056e+02
737             	3.46510745e+02
738             	3.46510778e+02
739             	3.46511047e+02
740             	3.46511458e+02
741             	3.46512002e+02
742             	3.46512703e+02
743             	3.46513587e+02
744             	3.46514706e+02
745             	3.46515983e+02
746             	3.46517353e+02
747             	3.46518818e+02
748             	3.46520362e+02
749             	3.46521966e+02
750             	3.46523608e+02
751             	3.46524086e+02
752             	3.46525315e+02
753             	3.46526745e+02
754             	3.46528430e+02
755             	3.46530221e+02
756             	3.46530866e+02
757             	3.46531094e+02
758             	3.46531261e+02
759             	3.46531383e+02
760             	3.46531351e+02
761             	3.46531173e+02
762             	3.46530785e+02
763             	3.46530527e+02
764             	3.46530261e+02
765             	3.46529992e+02
766             	3.46529745e+02
767             	3.46529472e+02
768             	3.46529099e+02
769             	3.46528593e+02
770             	3.46528081e+02
771             	3.46527608e+02
772             	3.46527197e+02
773             	3.46526849e+02
774             	3.46526609e+02
775             	3.46526578e+02
776             	3.46526847e+02
777             	3.46527314e+02
778             	3.46527909e+02
779             	3.46526922e+02
780             	3.46527150e+02
781             	3.46527759e+02
782             	3.46528256e+02
783             	3.46528438e+02
784             	3.46528370e+02
785             	3.46528208e+02
786             	3.46527995e+02
787             	3.46527720e+02
788             	3.46527445e+02
789             	3.46527136e+02
790             	3.46526793e+02
791             	3.46526739e+02
792             	3.46526737e+02
793             	3.46525791e+02
794             	3.46525046e+02
795             	3.46524336e+02
796             	3.46523288e+02
797             	3.46522429e+02
798             	3.46522176e+02
799             	3.46522431e+02
800             	3.46522009e+02
801             	3.46521967e+02
802             	3.46521259e+02
803             	3.46520360e+02
804             	3.46520188e+02
805             	3.46519721e+02
806             	3.46519303e+02
807             	3.46519123e+02
808             	3.46519186e+02
809             	3.46519460e+02
810             	3.46519884e+02
811             	3.46520414e+02
812             	3.46521011e+02
813             	3.46521644e+02
814             	3.46522259e+02
815             	3.46522863e+02
816             	3.46521275e+02
817             	3.46521291e+02
818             	3.46521878e+02
819             	3.46522467e+02
820             	3.46522808e+02
821             	3.46522918e+02
822             	3.46522843e+02
823             	3.46522620e+02
824             	3.46522280e+02
825             	3.46521767e+02
826             	3.46521205e+02
827             	3.46520705e+02
828             	3.46520096e+02
829             	3.46520106e+02
830             	3.46519786e+02
831             	3.46519512e+02
832             	3.46519505e+02
833             	3.46519688e+02
834             	3.46519950e+02
835             	3.46520224e+02
836             	3.46521017e+02
837             	3.46521324e+02
838             	3.46521392e+02
839             	3.46521341e+02
840             	3.46521156e+02
841             	3.46520798e+02
842             	3.46521353e+02
843             	3.46520885e+02
844             	3.46520752e+02
845             	3.46520528e+02
846             	3.46520470e+02
847             	3.46520694e+02
848             	3.46520728e+02
849             	3.46520388e+02
850             	3.46520960e+02
851             	3.46521285e+02
852             	3.46521507e+02
853             	3.46521815e+02
854             	3.46521971e+02
855             	3.46522159e+02
856             	3.46520981e+02
857             	3.46520336e+02
858             	3.46519946e+02
859             	3.46519562e+02
860             	3.46519026e+02
861             	3.46518460e+02
862             	3.46517856e+02
863             	3.46517302e+02
864             	3.46517109e+02
865             	3.46516622e+02
866             	3.46516092e+02
867             	3.46515598e+02
868             	3.46515101e+02
869             	3.46514613e+02
870             	3.46514035e+02
871             	3.46513067e+02
872             	3.46512333e+02
873             	3.46511670e+02
874             	3.46511007e+02
875             	3.46510372e+02
876             	3.46509807e+02
877             	3.46509930e+02
878             	3.46509916e+02
879             	3.46509325e+02
880             	3.46509154e+02
881             	3.46508475e+02
882             	3.46508843e+02
883             	3.46509583e+02
884             	3.46509061e+02
885             	3.46509666e+02
886             	3.46510626e+02
887             	3.46511991e+02
888             	3.46512821e+02
889             	3.46513392e+02
890             	3.46513813e+02
891             	3.46514054e+02
892             	3.46514105e+02
893             	3.46513951e+02
894             	3.46513635e+02
895             	3.46513223e+02
896             	3.46512754e+02
897             	3.46512247e+02
898             	3.46511917e+02
899             	3.46511714e+02
900             	3.46510604e+02
901             	3.46510347e+02
902             	3.46510451e+02
903             	3.46510672e+02
904             	3.46511030e+02
905             	3.46511581e+02
906             	3.46511613e+02
907             	3.46511605e+02
908             	3.46511719e+02
909             	3.46512378e+02
910             	3.46512678e+02
911             	3.46512941e+02
912             	3.46513296e+02
913             	3.46513683e+02
914             	3.46514760e+02
915             	3.46515185e+02
916             	3.46515424e+02
917             	3.46515699e+02
918             	3.46516014e+02
919             	3.46516318e+02
920             	3.46516571e+02
921             	3.46516718e+02
922             	3.46516949e+02
923             	3.46517023e+02
924             	3.46517032e+02
925             	3.46516538e+02
926             	3.46516238e+02
927             	3.46515905e+02
928             	3.46515465e+02
929             	3.46514931e+02
930             	3.46514341e+02
931             	3.46513920e+02
932             	3.46514052e+02
933             	3.46513568e+02