# Region        : cellZone fluid
# Cells         : 9844
# Volume        : 1.85841745e+01
# Time          	volAverage(T)
1               	3.00000065e+02
2               	3.00000124e+02
3               	3.00000599e+02
4               	3.00001155e+02
5               	3.00001614e+02
6               	3.00002055e+02
7               	3.00002575e+02
8               	3.00003212e+02
9               	3.00004354e+02
10              	3.00005544e+02
11              	3.00006450e+02
12              	3.00007307e+02
13              	3.00008610e+02
14              	3.00009924e+02
15              	3.00011575e+02
16              	3.00012450e+02
17              	3.00013698e+02
18              	3.00014922e+02
19              	3.00016239e+02
20              	3.00017592e+02
21              	3.00019354e+02
22              	3.00020617e+02
23              	3.00022193e+02
24              	3.00023987e+02
25              	3.00025610e+02
26              	3.00027483e+02
27              	3.00029394e+02
28              	3.00031243e+02
29              	3.00033348e+02
30              	3.00035327e+02
31              	3.00037452e+02
32              	3.00039908e+02
33              	3.00043348e+02
34              	3.00046292e+02
35              	3.00048660e+02
36              	3.00051176e+02
37              	3.00053183e+02
38              	3.00055173e+02
39              	3.00057509e+02
40              	3.00059534e+02
41              	3.00061370e+02
42              	3.00063713e+02
43              	3.00065946e+02
44              	3.00068649e+02
45              	3.00070402e+02
46              	3.00073028e+02
47              	3.00075013e+02
48              	3.00078044e+02
49              	3.00080665e+02
50              	3.00083363e+02
51              	3.00086636e+02
52              	3.00089080e+02
53              	3.00091866e+02
54              	3.00094998e+02
55              	3.00097363e+02
56              	3.00100724e+02
57              	3.00103384e+02
58              	3.00107011e+02
59              	3.00109247e+02
60              	3.00111201e+02
61              	3.00113089e+02
62              	3.00115214e+02
63              	3.00117279e+02
64              	3.00118789e+02
65              	3.00120344e+02
66              	3.00122762e+02
67              	3.00124756e+02
68              	3.00126546e+02
69              	3.00128887e+02
70              	3.00129961e+02
71              	3.00131919e+02
72              	3.00134456e+02
73              	3.00136910e+02
74              	3.00138937e+02
75              	3.00140985e+02
76              	3.00143940e+02
77              	3.00145867e+02
78              	3.00147893e+02
79              	3.00150093e+02
80              	3.00153304e+02
81              	3.00155484e+02
82              	3.00158083e+02
83              	3.00159387e+02
84              	3.00160598e+02
85              	3.00161601e+02
86              	3.00163006e+02
87              	3.00164244e+02
88              	3.00164662e+02
89              	3.00165855e+02
90              	3.00168211e+02
91              	3.00168880e+02
92              	3.00170323e+02
93              	3.00171363e+02
94              	3.00172673e+02
95              	3.00173896e+02
96              	3.00175466e+02
97              	3.00176465e+02
98              	3.00177728e+02
99              	3.00178757e+02
100             	3.00180467e+02
101             	3.00182032e+02
102             	3.00183125e+02
103             	3.00183472e+02
104             	3.00183794e+02
105             	3.00184324e+02
106             	3.00185238e+02
107             	3.00185942e+02
108             	3.00186715e+02
109             	3.00187611e+02
110             	3.00188130e+02
111             	3.00189117e+02
112             	3.00190157e+02
113             	3.00191540e+02
114             	3.00192818e+02
115             	3.00193359e+02
116             	3.00194291e+02
117             	3.00195686e+02
118             	3.00196712e+02
119             	3.00197407e+02
120             	3.00198290e+02
121             	3.00199021e+02
122             	3.00201040e+02
123             	3.00201563e+02
124             	3.00201865e+02
125             	3.00202355e+02
126             	3.00202895e+02
127             	3.00203680e+02
128             	3.00204354e+02
129             	3.00205179e+02
130             	3.00206244e+02
131             	3.00207317e+02
132             	3.00208274e+02
133             	3.00209286e+02
134             	3.00210088e+02
135             	3.00210153e+02
136             	3.00210200e+02
137             	3.00210638e+02
138             	3.00211386e+02
139             	3.00212031e+02
140             	3.00212217e+02
141             	3.00212358e+02
142             	3.00213555e+02
143             	3.00214918e+02
144             	3.00214820e+02
145             	3.00215014e+02
146             	3.00215263e+02
147             	3.00216208e+02
148             	3.00216151e+02
149             	3.00215746e+02
150             	3.00215593e+02
151             	3.00216718e+02
152             	3.00216931e+02
153             	3.00216871e+02
154             	3.00217037e+02
155             	3.00218203e+02
156             	3.00218402e+02
157             	3.00218203e+02
158             	3.00218331e+02
159             	3.00218708e+02
160             	3.00219261e+02
161             	3.00219623e+02
162             	3.00219689e+02
163             	3.00219344e+02
164             	3.00219480e+02
165             	3.00220243e+02
166             	3.00220421e+02
167             	3.00221093e+02
168             	3.00221292e+02
169             	3.00222501e+02
170             	3.00222090e+02
171             	3.00222403e+02
172             	3.00222523e+02
173             	3.00223145e+02
174             	3.00223475e+02
175             	3.00224123e+02
176             	3.00223979e+02
177             	3.00223846e+02
178             	3.00223903e+02
179             	3.00224282e+02
180             	3.00224280e+02
181             	3.00224286e+02
182             	3.00224399e+02
183             	3.00225488e+02
184             	3.00226702e+02
185             	3.00226469e+02
186             	3.00226225e+02
187             	3.00226454e+02
188             	3.00226812e+02
189             	3.00226762e+02
190             	3.00227235e+02
191             	3.00227437e+02
192             	3.00227115e+02
193             	3.00227483e+02
194             	3.00228051e+02
195             	3.00228253e+02
196             	3.00228015e+02
197             	3.00227922e+02
198             	3.00228515e+02
199             	3.00228499e+02
200             	3.00229391e+02
201             	3.00229434e+02
202             	3.00229353e+02
203             	3.00229350e+02
204             	3.00229498e+02
205             	3.00229760e+02
206             	3.00229997e+02
207             	3.00230121e+02
208             	3.00230165e+02
209             	3.00230113e+02
210             	3.00230739e+02
211             	3.00230820e+02
212             	3.00231148e+02
213             	3.00230987e+02
214             	3.00231167e+02
215             	3.00231280e+02
216             	3.00231433e+02
217             	3.00231509e+02
218             	3.00231778e+02
219             	3.00231676e+02
220             	3.00231978e+02
221             	3.00232132e+02
222             	3.00232075e+02
223             	3.00232149e+02
224             	3.00232510e+02
225             	3.00232717e+02
226             	3.00232812e+02
227             	3.00232802e+02
228             	3.00232909e+02
229             	3.00233014e+02
230             	3.00233448e+02
231             	3.00233486e+02
232             	3.00233485e+02
233             	3.00233578e+02
234             	3.00233815e+02
235             	3.00233837e+02
236             	3.00233871e+02
237             	3.00233628e+02
238             	3.00234294e+02
239             	3.00234222e+02
240             	3.00234490e+02
241             	3.00234242e+02
242             	3.00234670e+02
243             	3.00234782e+02
244             	3.00235562e+02
245             	3.00235041e+02
246             	3.00235312e+02
247             	3.00235263e+02
248             	3.00235335e+02
249             	3.00235187e+02
250             	3.00235383e+02
251             	3.00235589e+02
252             	3.00235821e+02
253             	3.00235759e+02
254             	3.00235881e+02
255             	3.00235870e+02
256             	3.00236448e+02
257             	3.00236506e+02
258             	3.00236449e+02
259             	3.00236372e+02
260             	3.00236716e+02
261             	3.00236788e+02
262             	3.00236935e+02
263             	3.00236556e+02
264             	3.00236562e+02
265             	3.00236944e+02
266             	3.00237069e+02
267             	3.00237014e+02
268             	3.00237763e+02
269             	3.00237417e+02
270             	3.00237832e+02
271             	3.00237493e+02
272             	3.00237891e+02
273             	3.00237769e+02
274             	3.00238348e+02
275             	3.00238119e+02
276             	3.00238293e+02
277             	3.00237742e+02
278             	3.00238459e+02
279             	3.00238278e+02
280             	3.00238605e+02
281             	3.00238247e+02
282             	3.00238447e+02
283             	3.00238543e+02
284             	3.00239040e+02
285             	3.00238635e+02
286             	3.00238857e+02
287             	3.00238807e+02
288             	3.00239278e+02
289             	3.00239023e+02
290             	3.00239081e+02
291             	3.00238836e+02
292             	3.00239264e+02
293             	3.00238990e+02
294             	3.00239085e+02
295             	3.00238757e+02
296             	3.00239425e+02
297             	3.00239615e+02
298             	3.00239458e+02
299             	3.00239500e+02
300             	3.00239744e+02
301             	3.00239954e+02
302             	3.00239973e+02
303             	3.00239518e+02
304             	3.00239624e+02
305             	3.00239722e+02
306             	3.00239783e+02
307             	3.00239531e+02
308             	3.00239921e+02
309             	3.00240089e+02
310             	3.00240529e+02
311             	3.00240221e+02
312             	3.00240194e+02
313             	3.00240247e+02
314             	3.00240584e+02
315             	3.00240735e+02
316             	3.00240544e+02
317             	3.00240093e+02
318             	3.00240757e+02
319             	3.00240658e+02
320             	3.00240937e+02
321             	3.00240508e+02
322             	3.00240576e+02
323             	3.00240827e+02
324             	3.00241260e+02
325             	3.00240852e+02
326             	3.00241164e+02
327             	3.00241071e+02
328             	3.00241673e+02
329             	3.00241480e+02
330             	3.00241576e+02
331             	3.00240939e+02
332             	3.00241702e+02
333             	3.00241119e+02
334             	3.00241569e+02
335             	3.00241247e+02
336             	3.00241487e+02
337             	3.00241186e+02
338             	3.00241742e+02
339             	3.00242145e+02
340             	3.00241584e+02
341             	3.00241793e+02
342             	3.00241567e+02
343             	3.00241891e+02
344             	3.00241471e+02
345             	3.00241501e+02
346             	3.00241504e+02
347             	3.00241826e+02
348             	3.00241667e+02
349             	3.00241865e+02
350             	3.00241574e+02
351             	3.00241783e+02
352             	3.00241508e+02
353             	3.00241889e+02
354             	3.00241746e+02
355             	3.00241838e+02
356             	3.00241742e+02
357             	3.00241972e+02
358             	3.00241837e+02
359             	3.00242194e+02
360             	3.00241907e+02
361             	3.00241939e+02
362             	3.00241741e+02
363             	3.00242287e+02
364             	3.00242050e+02
365             	3.00242462e+02
366             	3.00242180e+02
367             	3.00242567e+02
368             	3.00242286e+02
369             	3.00242829e+02
370             	3.00242282e+02
371             	3.00242551e+02
372             	3.00242273e+02
373             	3.00242137e+02
374             	3.00241897e+02
375             	3.00242535e+02
376             	3.00242472e+02
377             	3.00242984e+02
378             	3.00242553e+02
379             	3.00242975e+02
380             	3.00242618e+02
381             	3.00242770e+02
382             	3.00242552e+02
383             	3.00242514e+02
384             	3.00242261e+02
385             	3.00242457e+02
386             	3.00242261e+02
387             	3.00242609e+02
388             	3.00242383e+02
389             	3.00242791e+02
390             	3.00242601e+02
391             	3.00243022e+02
392             	3.00242781e+02
393             	3.00242857e+02
394             	3.00242488e+02
395             	3.00242880e+02
396             	3.00242609e+02
397             	3.00242893e+02
398             	3.00242541e+02
399             	3.00242987e+02
400             	3.00242981e+02
401             	3.00242908e+02
402             	3.00242809e+02
403             	3.00242833e+02
404             	3.00242805e+02
405             	3.00242996e+02
406             	3.00242814e+02
407             	3.00242692e+02
408             	3.00242708e+02
409             	3.00242708e+02
410             	3.00242680e+02
411             	3.00242642e+02
412             	3.00242520e+02
413             	3.00242728e+02
414             	3.00242927e+02
415             	3.00242927e+02
416             	3.00242870e+02
417             	3.00242797e+02
418             	3.00242804e+02
419             	3.00242843e+02
420             	3.00242843e+02
421             	3.00242829e+02
422             	3.00242755e+02
423             	3.00242653e+02
424             	3.00242855e+02
425             	3.00242796e+02
426             	3.00242928e+02
427             	3.00242809e+02
428             	3.00242894e+02
429             	3.00242811e+02
430             	3.00242925e+02
431             	3.00242895e+02
432             	3.00242895e+02
433             	3.00242846e+02
434             	3.00242848e+02
435             	3.00242809e+02
436             	3.00242777e+02
437             	3.00242789e+02
438             	3.00242834e+02
439             	3.00242862e+02
440             	3.00242879e+02
441             	3.00242857e+02
442             	3.00242871e+02
443             	3.00242862e+02
444             	3.00242917e+02
445             	3.00242869e+02
446             	3.00242896e+02
447             	3.00242885e+02
448             	3.00242933e+02
449             	3.00242874e+02
450             	3.00242894e+02
451             	3.00242916e+02
452             	3.00242923e+02
453             	3.00242950e+02
454             	3.00242953e+02
455             	3.00242893e+02
456             	3.00242958e+02
457             	3.00242894e+02
458             	3.00242876e+02
459             	3.00242861e+02
460             	3.00242883e+02
461             	3.00242842e+02
462             	3.00242901e+02
463             	3.00242869e+02
464             	3.00242916e+02
465             	3.00242909e+02
466             	3.00242953e+02
467             	3.00242881e+02
468             	3.00242885e+02
469             	3.00242886e+02
470             	3.00242922e+02
471             	3.00242909e+02
472             	3.00242944e+02
473             	3.00242885e+02
474             	3.00242955e+02
475             	3.00242933e+02
476             	3.00242923e+02
477             	3.00242932e+02
478             	3.00242957e+02
479             	3.00242901e+02
480             	3.00242949e+02
481             	3.00242918e+02
482             	3.00242931e+02
483             	3.00242932e+02
484             	3.00242920e+02
485             	3.00242886e+02
486             	3.00242955e+02
487             	3.00242925e+02
488             	3.00242936e+02
489             	3.00242914e+02
490             	3.00242937e+02
491             	3.00242879e+02
492             	3.00242952e+02
493             	3.00242970e+02
494             	3.00242932e+02
495             	3.00242919e+02
496             	3.00242940e+02
497             	3.00242904e+02
498             	3.00242940e+02
499             	3.00242875e+02
500             	3.00242864e+02
501             	3.00242899e+02
502             	3.00242927e+02
503             	3.00242878e+02
504             	3.00242948e+02
505             	3.00242910e+02
506             	3.00242967e+02
507             	3.00242950e+02
508             	3.00242977e+02
509             	3.00242917e+02
510             	3.00243007e+02
511             	3.00242938e+02
512             	3.00242939e+02
513             	3.00242872e+02
514             	3.00242993e+02
515             	3.00242902e+02
516             	3.00243004e+02
517             	3.00242912e+02
518             	3.00243008e+02
519             	3.00242978e+02
520             	3.00243099e+02
521             	3.00242930e+02
522             	3.00243074e+02
523             	3.00242966e+02
524             	3.00242986e+02
525             	3.00242933e+02
526             	3.00243019e+02
527             	3.00242938e+02
528             	3.00243068e+02
529             	3.00242936e+02
530             	3.00243023e+02
531             	3.00242958e+02
532             	3.00243059e+02
533             	3.00243021e+02
534             	3.00243064e+02
535             	3.00242965e+02
536             	3.00243048e+02
537             	3.00242996e+02
538             	3.00243069e+02
539             	3.00242948e+02
540             	3.00242992e+02
541             	3.00242974e+02
542             	3.00243051e+02
543             	3.00242993e+02
544             	3.00243071e+02
545             	3.00243042e+02
546             	3.00243096e+02
547             	3.00243003e+02
548             	3.00243058e+02
549             	3.00242999e+02
550             	3.00243089e+02
551             	3.00242978e+02
552             	3.00243098e+02
553             	3.00242994e+02
554             	3.00243096e+02
555             	3.00243005e+02
556             	3.00243088e+02
557             	3.00242986e+02
558             	3.00243127e+02
559             	3.00243013e+02
560             	3.00243112e+02
561             	3.00243014e+02
562             	3.00243134e+02
563             	3.00242969e+02
564             	3.00243158e+02
565             	3.00243018e+02
566             	3.00243157e+02
567             	3.00243027e+02
568             	3.00243190e+02
569             	3.00242995e+02
570             	3.00243201e+02
571             	3.00243017e+02
572             	3.00243200e+02
573             	3.00243029e+02
574             	3.00243243e+02
575             	3.00243023e+02
576             	3.00243285e+02
577             	3.00243059e+02
578             	3.00243298e+02
579             	3.00243081e+02
580             	3.00243265e+02
581             	3.00243059e+02
582             	3.00243328e+02
583             	3.00243096e+02
584             	3.00243353e+02
585             	3.00243123e+02
586             	3.00243438e+02
587             	3.00243131e+02
588             	3.00243472e+02
589             	3.00243162e+02
590             	3.00243450e+02
591             	3.00243169e+02
592             	3.00243502e+02
593             	3.00243157e+02
594             	3.00243494e+02
595             	3.00243179e+02
596             	3.00243471e+02
597             	3.00243197e+02
598             	3.00243412e+02
599             	3.00243168e+02
600             	3.00243469e+02
601             	3.00243206e+02
602             	3.00243519e+02
603             	3.00243244e+02
604             	3.00243574e+02
605             	3.00243246e+02
606             	3.00243566e+02
607             	3.00243261e+02
608             	3.00243543e+02
609             	3.00243260e+02
610             	3.00243555e+02
611             	3.00243225e+02
612             	3.00243572e+02
613             	3.00243249e+02
614             	3.00243558e+02
615             	3.00243264e+02
616             	3.00243576e+02
617             	3.00243251e+02
618             	3.00243598e+02
619             	3.00243284e+02
620             	3.00243580e+02
621             	3.00243301e+02
622             	3.00243612e+02
623             	3.00243293e+02
624             	3.00243638e+02
625             	3.00243325e+02
626             	3.00243622e+02
627             	3.00243345e+02
628             	3.00243656e+02
629             	3.00243343e+02
630             	3.00243660e+02
631             	3.00243369e+02
632             	3.00243664e+02
633             	3.00243390e+02
634             	3.00243691e+02
635             	3.00243377e+02
636             	3.00243705e+02
637             	3.00243399e+02
638             	3.00243689e+02
639             	3.00243408e+02
640             	3.00243706e+02
641             	3.00243389e+02
642             	3.00243710e+02
643             	3.00243401e+02
644             	3.00243701e+02
645             	3.00243410e+02
646             	3.00243708e+02
647             	3.00243385e+02
648             	3.00243747e+02
649             	3.00243415e+02
650             	3.00243718e+02
651             	3.00243427e+02
652             	3.00243747e+02
653             	3.00243425e+02
654             	3.00243728e+02
655             	3.00243444e+02
656             	3.00243718e+02
657             	3.00243460e+02
658             	3.00243738e+02
659             	3.00243440e+02
660             	3.00243743e+02
661             	3.00243452e+02
662             	3.00243730e+02
663             	3.00243486e+02
664             	3.00243747e+02
665             	3.00243448e+02
666             	3.00243766e+02
667             	3.00243485e+02
668             	3.00243755e+02
669             	3.00243489e+02
670             	3.00243775e+02
671             	3.00243472e+02
672             	3.00243792e+02
673             	3.00243496e+02
674             	3.00243730e+02
675             	3.00243497e+02
676             	3.00243770e+02
677             	3.00243488e+02
678             	3.00243802e+02
679             	3.00243519e+02
680             	3.00243845e+02
681             	3.00243554e+02
682             	3.00243850e+02
683             	3.00243532e+02
684             	3.00243849e+02
685             	3.00243543e+02
686             	3.00243824e+02
687             	3.00243541e+02
688             	3.00243828e+02
689             	3.00243507e+02
690             	3.00243816e+02
691             	3.00243500e+02
692             	3.00243807e+02
693             	3.00243516e+02
694             	3.00243823e+02
695             	3.00243498e+02
696             	3.00243867e+02
697             	3.00243543e+02
698             	3.00243904e+02
699             	3.00243575e+02
700             	3.00243872e+02
701             	3.00243547e+02
702             	3.00243858e+02
703             	3.00243545e+02
704             	3.00243834e+02
705             	3.00243567e+02
706             	3.00243781e+02
707             	3.00243531e+02
708             	3.00243838e+02
709             	3.00243560e+02
710             	3.00243845e+02
711             	3.00243588e+02
712             	3.00243879e+02
713             	3.00243563e+02
714             	3.00243943e+02
715             	3.00243592e+02
716             	3.00243879e+02
717             	3.00243586e+02
718             	3.00243883e+02
719             	3.00243551e+02
720             	3.00243810e+02
721             	3.00243546e+02
722             	3.00243808e+02
723             	3.00243560e+02
724             	3.00243868e+02
725             	3.00243565e+02
726             	3.00243929e+02
727             	3.00243606e+02
728             	3.00243929e+02
729             	3.00243631e+02
730             	3.00243895e+02
731             	3.00243575e+02
732             	3.00243869e+02
733             	3.00243581e+02
734             	3.00243841e+02
735             	3.00243571e+02
736             	3.00243868e+02
737             	3.00243538e+02
738             	3.00243889e+02
739             	3.00243555e+02
740             	3.00243830e+02
741             	3.00243556e+02
742             	3.00243851e+02
743             	3.00243547e+02
744             	3.00243934e+02
745             	3.00243597e+02
746             	3.00243921e+02
747             	3.00243616e+02
748             	3.00243901e+02
749             	3.00243555e+02
750             	3.00243875e+02
751             	3.00243588e+02
752             	3.00243899e+02
753             	3.00243607e+02
754             	3.00243905e+02
755             	3.00243590e+02
756             	3.00243922e+02
757             	3.00243658e+02
758             	3.00243844e+02
759             	3.00243603e+02
760             	3.00243834e+02
761             	3.00243561e+02
762             	3.00243851e+02
763             	3.00243579e+02
764             	3.00243809e+02
765             	3.00243573e+02
766             	3.00243848e+02
767             	3.00243555e+02
768             	3.00243907e+02
769             	3.00243594e+02
770             	3.00243861e+02
771             	3.00243597e+02
772             	3.00243918e+02
773             	3.00243588e+02
774             	3.00243907e+02
775             	3.00243596e+02
776             	3.00243875e+02
777             	3.00243594e+02
778             	3.00243881e+02
779             	3.00243557e+02
780             	3.00243852e+02
781             	3.00243555e+02
782             	3.00243832e+02
783             	3.00243555e+02
784             	3.00243848e+02
785             	3.00243529e+02
786             	3.00243839e+02
787             	3.00243540e+02
788             	3.00243849e+02
789             	3.00243559e+02
790             	3.00243852e+02
791             	3.00243536e+02
792             	3.00243853e+02
793             	3.00243552e+02
794             	3.00243836e+02
795             	3.00243560e+02
796             	3.00243865e+02
797             	3.00243545e+02
798             	3.00243878e+02
799             	3.00243570e+02
800             	3.00243862e+02
801             	3.00243587e+02
802             	3.00243902e+02
803             	3.00243581e+02
804             	3.00243917e+02
805             	3.00243605e+02
806             	3.00243838e+02
807             	3.00243595e+02
808             	3.00243877e+02
809             	3.00243574e+02
810             	3.00243883e+02
811             	3.00243578e+02
812             	3.00243859e+02
813             	3.00243580e+02
814             	3.00243894e+02
815             	3.00243579e+02
816             	3.00243873e+02
817             	3.00243573e+02
818             	3.00243841e+02
819             	3.00243571e+02
820             	3.00243854e+02
821             	3.00243547e+02
822             	3.00243866e+02
823             	3.00243565e+02
824             	3.00243773e+02
825             	3.00243554e+02
826             	3.00243831e+02
827             	3.00243547e+02
828             	3.00243901e+02
829             	3.00243583e+02
830             	3.00243861e+02
831             	3.00243588e+02
832             	3.00243870e+02
833             	3.00243561e+02
834             	3.00243875e+02
835             	3.00243574e+02
836             	3.00243859e+02
837             	3.00243579e+02
838             	3.00243874e+02
839             	3.00243549e+02
840             	3.00243877e+02
841             	3.00243561e+02
842             	3.00243845e+02
843             	3.00243560e+02
844             	3.00243851e+02
845             	3.00243537e+02
846             	3.00243859e+02
847             	3.00243556e+02
848             	3.00243852e+02
849             	3.00243569e+02
850             	3.00243886e+02
851             	3.00243554e+02
852             	3.00243888e+02
853             	3.00243569e+02
854             	3.00243880e+02
855             	3.00243581e+02
856             	3.00243883e+02
857             	3.00243558e+02
858             	3.00243899e+02
859             	3.00243580e+02
860             	3.00243873e+02
861             	3.00243587e+02
862             	3.00243881e+02
863             	3.00243563e+02
864             	3.00243885e+02
865             	3.00243578e+02
866             	3.00243854e+02
867             	3.00243580e+02
868             	3.00243879e+02
869             	3.00243560e+02
870             	3.00243887e+02
871             	3.00243575e+02
872             	3.00243878e+02
873             	3.00243585e+02
874             	3.00243886e+02
875             	3.00243559e+02
876             	3.00243884e+02
877             	3.00243568e+02
878             	3.00243852e+02
879             	3.00243567e+02
880             	3.00243851e+02
881             	3.00243534e+02
882             	3.00243838e+02
883             	3.00243540e+02
884             	3.00243820e+02
885             	3.00243543e+02
886             	3.00243868e+02
887             	3.00243532e+02
888             	3.00243901e+02
889             	3.00243559e+02
890             	3.00243854e+02
891             	3.00243567e+02
892             	3.00243856e+02
893             	3.00243548e+02
894             	3.00243816e+02
895             	3.00243554e+02
896             	3.00243836e+02
897             	3.00243573e+02
898             	3.00243870e+02
899             	3.00243558e+02
900             	3.00243881e+02
901             	3.00243578e+02
902             	3.00243859e+02
903             	3.00243584e+02
904             	3.00243875e+02
905             	3.00243561e+02
906             	3.00243882e+02
907             	3.00243573e+02
908             	3.00243860e+02
909             	3.00243575e+02
910             	3.00243893e+02
911             	3.00243556e+02
912             	3.00243889e+02
913             	3.00243565e+02
914             	3.00243858e+02
915             	3.00243569e+02
916             	3.00243872e+02
917             	3.00243553e+02
918             	3.00243888e+02
919             	3.00243577e+02
920             	3.00243870e+02
921             	3.00243589e+02
922             	3.00243884e+02
923             	3.00243570e+02
924             	3.00243866e+02
925             	3.00243580e+02
926             	3.00243864e+02
927             	3.00243592e+02
928             	3.00243900e+02
929             	3.00243577e+02
930             	3.00243899e+02
931             	3.00243591e+02
932             	3.00243893e+02
933             	3.00243602e+02