# Region        : cellZone fluid
# Cells         : 8574
# Volume        : 1.65194530e+01
# Time          	volAverage(T)
1               	3.00000183e+02
2               	3.00000307e+02
3               	3.00001166e+02
4               	3.00002375e+02
5               	3.00003042e+02
6               	3.00003679e+02
7               	3.00004181e+02
8               	3.00005135e+02
9               	3.00005838e+02
10              	3.00006797e+02
11              	3.00007840e+02
12              	3.00008978e+02
13              	3.00010192e+02
14              	3.00011711e+02
15              	3.00012737e+02
16              	3.00014422e+02
17              	3.00016153e+02
18              	3.00017655e+02
19              	3.00019317e+02
20              	3.00020657e+02
21              	3.00021645e+02
22              	3.00023468e+02
23              	3.00025159e+02
24              	3.00026859e+02
25              	3.00028664e+02
26              	3.00030036e+02
27              	3.00031853e+02
28              	3.00034595e+02
29              	3.00036519e+02
30              	3.00039592e+02
31              	3.00041384e+02
32              	3.00043480e+02
33              	3.00044929e+02
34              	3.00047750e+02
35              	3.00050907e+02
36              	3.00053249e+02
37              	3.00055234e+02
38              	3.00057015e+02
39              	3.00059361e+02
40              	3.00061804e+02
41              	3.00064665e+02
42              	3.00067488e+02
43              	3.00070132e+02
44              	3.00072959e+02
45              	3.00076183e+02
46              	3.00078403e+02
47              	3.00080776e+02
48              	3.00082980e+02
49              	3.00084704e+02
50              	3.00085715e+02
51              	3.00087305e+02
52              	3.00089051e+02
53              	3.00091245e+02
54              	3.00093751e+02
55              	3.00096447e+02
56              	3.00098754e+02
57              	3.00100966e+02
58              	3.00103477e+02
59              	3.00105760e+02
60              	3.00108058e+02
61              	3.00109847e+02
62              	3.00111515e+02
63              	3.00113175e+02
64              	3.00115779e+02
65              	3.00117657e+02
66              	3.00119237e+02
67              	3.00121381e+02
68              	3.00122977e+02
69              	3.00125011e+02
70              	3.00126864e+02
71              	3.00129074e+02
72              	3.00131690e+02
73              	3.00133869e+02
74              	3.00136826e+02
75              	3.00138795e+02
76              	3.00140148e+02
77              	3.00141663e+02
78              	3.00143216e+02
79              	3.00144842e+02
80              	3.00146147e+02
81              	3.00148378e+02
82              	3.00150111e+02
83              	3.00152924e+02
84              	3.00155077e+02
85              	3.00156860e+02
86              	3.00158441e+02
87              	3.00159866e+02
88              	3.00160835e+02
89              	3.00161445e+02
90              	3.00162494e+02
91              	3.00162902e+02
92              	3.00163658e+02
93              	3.00164658e+02
94              	3.00165719e+02
95              	3.00166716e+02
96              	3.00169002e+02
97              	3.00169956e+02
98              	3.00171186e+02
99              	3.00172375e+02
100             	3.00173177e+02
101             	3.00173754e+02
102             	3.00174316e+02
103             	3.00175067e+02
104             	3.00175835e+02
105             	3.00176824e+02
106             	3.00178192e+02
107             	3.00179630e+02
108             	3.00181225e+02
109             	3.00182649e+02
110             	3.00184082e+02
111             	3.00185893e+02
112             	3.00187718e+02
113             	3.00188565e+02
114             	3.00189277e+02
115             	3.00189453e+02
116             	3.00189939e+02
117             	3.00190070e+02
118             	3.00189866e+02
119             	3.00190480e+02
120             	3.00191174e+02
121             	3.00191758e+02
122             	3.00192563e+02
123             	3.00193098e+02
124             	3.00194143e+02
125             	3.00195296e+02
126             	3.00197475e+02
127             	3.00198165e+02
128             	3.00198482e+02
129             	3.00198900e+02
130             	3.00199245e+02
131             	3.00199747e+02
132             	3.00200346e+02
133             	3.00201053e+02
134             	3.00201856e+02
135             	3.00203104e+02
136             	3.00204152e+02
137             	3.00205230e+02
138             	3.00206179e+02
139             	3.00206895e+02
140             	3.00207577e+02
141             	3.00208610e+02
142             	3.00209714e+02
143             	3.00210605e+02
144             	3.00211408e+02
145             	3.00211997e+02
146             	3.00212593e+02
147             	3.00213397e+02
148             	3.00214716e+02
149             	3.00215007e+02
150             	3.00215651e+02
151             	3.00216309e+02
152             	3.00216971e+02
153             	3.00217613e+02
154             	3.00218344e+02
155             	3.00218940e+02
156             	3.00219498e+02
157             	3.00220105e+02
158             	3.00220951e+02
159             	3.00221785e+02
160             	3.00222327e+02
161             	3.00222900e+02
162             	3.00223432e+02
163             	3.00224029e+02
164             	3.00224527e+02
165             	3.00224801e+02
166             	3.00225033e+02
167             	3.00225365e+02
168             	3.00225661e+02
169             	3.00225966e+02
170             	3.00226243e+02
171             	3.00226368e+02
172             	3.00226546e+02
173             	3.00226680e+02
174             	3.00226830e+02
175             	3.00226873e+02
176             	3.00226975e+02
177             	3.00226955e+02
178             	3.00226927e+02
179             	3.00227431e+02
180             	3.00227680e+02
181             	3.00226876e+02
182             	3.00226490e+02
183             	3.00226119e+02
184             	3.00225794e+02
185             	3.00225530e+02
186             	3.00225355e+02
187             	3.00225282e+02
188             	3.00225228e+02
189             	3.00225621e+02
190             	3.00225766e+02
191             	3.00226273e+02
192             	3.00226223e+02
193             	3.00225765e+02
194             	3.00225681e+02
195             	3.00225403e+02
196             	3.00225247e+02
197             	3.00224949e+02
198             	3.00224793e+02
199             	3.00224736e+02
200             	3.00224776e+02
201             	3.00224798e+02
202             	3.00224891e+02
203             	3.00224624e+02
204             	3.00224538e+02
205             	3.00224452e+02
206             	3.00224207e+02
207             	3.00223959e+02
208             	3.00223762e+02
209             	3.00223542e+02
210             	3.00223378e+02
211             	3.00223164e+02
212             	3.00222976e+02
213             	3.00223068e+02
214             	3.00222993e+02
215             	3.00222984e+02
216             	3.00222943e+02
217             	3.00222927e+02
218             	3.00222952e+02
219             	3.00223020e+02
220             	3.00223061e+02
221             	3.00223143e+02
222             	3.00223205e+02
223             	3.00223246e+02
224             	3.00223254e+02
225             	3.00223387e+02
226             	3.00223422e+02
227             	3.00223432e+02
228             	3.00223601e+02
229             	3.00223735e+02
230             	3.00223820e+02
231             	3.00223876e+02
232             	3.00223873e+02
233             	3.00223895e+02
234             	3.00223971e+02
235             	3.00224143e+02
236             	3.00224314e+02
237             	3.00224105e+02
238             	3.00224142e+02
239             	3.00224192e+02
240             	3.00224251e+02
241             	3.00224351e+02
242             	3.00224417e+02
243             	3.00224562e+02
244             	3.00224630e+02
245             	3.00224745e+02
246             	3.00224845e+02
247             	3.00225021e+02
248             	3.00225114e+02
249             	3.00225023e+02
250             	3.00225179e+02
251             	3.00225295e+02
252             	3.00225329e+02
253             	3.00225329e+02
254             	3.00225390e+02
255             	3.00225362e+02
256             	3.00225461e+02
257             	3.00225600e+02
258             	3.00225562e+02
259             	3.00225770e+02
260             	3.00225823e+02
261             	3.00225761e+02
262             	3.00225744e+02
263             	3.00225681e+02
264             	3.00225640e+02
265             	3.00225623e+02
266             	3.00225630e+02
267             	3.00225612e+02
268             	3.00225617e+02
269             	3.00225697e+02
270             	3.00225771e+02
271             	3.00225868e+02
272             	3.00225992e+02
273             	3.00226061e+02
274             	3.00226119e+02
275             	3.00226179e+02
276             	3.00226267e+02
277             	3.00226249e+02
278             	3.00226422e+02
279             	3.00226556e+02
280             	3.00226663e+02
281             	3.00226793e+02
282             	3.00226889e+02
283             	3.00226996e+02
284             	3.00227024e+02
285             	3.00227066e+02
286             	3.00227032e+02
287             	3.00227034e+02
288             	3.00226963e+02
289             	3.00226944e+02
290             	3.00226903e+02
291             	3.00227233e+02
292             	3.00227124e+02
293             	3.00227077e+02
294             	3.00227041e+02
295             	3.00227060e+02
296             	3.00227019e+02
297             	3.00227053e+02
298             	3.00227013e+02
299             	3.00227029e+02
300             	3.00227103e+02
301             	3.00227203e+02
302             	3.00227277e+02
303             	3.00227445e+02
304             	3.00227545e+02
305             	3.00227539e+02
306             	3.00227640e+02
307             	3.00227793e+02
308             	3.00227908e+02
309             	3.00227981e+02
310             	3.00228028e+02
311             	3.00228061e+02
312             	3.00228101e+02
313             	3.00228120e+02
314             	3.00228112e+02
315             	3.00228148e+02
316             	3.00228120e+02
317             	3.00228094e+02
318             	3.00228105e+02
319             	3.00228164e+02
320             	3.00228115e+02
321             	3.00228257e+02
322             	3.00228201e+02
323             	3.00228180e+02
324             	3.00228195e+02
325             	3.00228173e+02
326             	3.00228167e+02
327             	3.00228366e+02
328             	3.00228283e+02
329             	3.00228307e+02
330             	3.00228364e+02
331             	3.00228459e+02
332             	3.00228552e+02
333             	3.00228664e+02
334             	3.00228766e+02
335             	3.00228826e+02
336             	3.00228991e+02
337             	3.00229136e+02
338             	3.00229245e+02
339             	3.00229308e+02
340             	3.00229353e+02
341             	3.00229414e+02
342             	3.00229397e+02
343             	3.00229359e+02
344             	3.00229332e+02
345             	3.00229240e+02
346             	3.00229155e+02
347             	3.00229139e+02
348             	3.00229035e+02
349             	3.00228935e+02
350             	3.00228897e+02
351             	3.00228784e+02
352             	3.00228683e+02
353             	3.00228638e+02
354             	3.00228560e+02
355             	3.00228588e+02
356             	3.00228593e+02
357             	3.00228589e+02
358             	3.00228650e+02
359             	3.00228774e+02
360             	3.00228800e+02
361             	3.00228879e+02
362             	3.00229026e+02
363             	3.00229125e+02
364             	3.00229239e+02
365             	3.00229387e+02
366             	3.00229447e+02
367             	3.00229512e+02
368             	3.00229630e+02
369             	3.00229672e+02
370             	3.00229682e+02
371             	3.00229723e+02
372             	3.00229685e+02
373             	3.00229659e+02
374             	3.00229704e+02
375             	3.00229664e+02
376             	3.00229632e+02
377             	3.00229625e+02
378             	3.00229571e+02
379             	3.00229519e+02
380             	3.00229426e+02
381             	3.00229428e+02
382             	3.00229404e+02
383             	3.00229380e+02
384             	3.00229389e+02
385             	3.00229385e+02
386             	3.00229360e+02
387             	3.00229338e+02
388             	3.00229308e+02
389             	3.00229281e+02
390             	3.00229288e+02
391             	3.00229287e+02
392             	3.00229227e+02
393             	3.00229247e+02
394             	3.00229268e+02
395             	3.00229236e+02
396             	3.00229278e+02
397             	3.00229351e+02
398             	3.00229343e+02
399             	3.00229339e+02
400             	3.00229310e+02
401             	3.00229318e+02
402             	3.00229330e+02
403             	3.00229342e+02
404             	3.00229296e+02
405             	3.00229317e+02
406             	3.00229323e+02
407             	3.00229339e+02
408             	3.00229320e+02
409             	3.00229324e+02
410             	3.00229348e+02
411             	3.00229340e+02
412             	3.00229334e+02
413             	3.00229332e+02
414             	3.00229340e+02
415             	3.00229327e+02
416             	3.00229363e+02
417             	3.00229320e+02
418             	3.00229279e+02
419             	3.00229288e+02
420             	3.00229250e+02
421             	3.00229205e+02
422             	3.00229244e+02
423             	3.00229199e+02
424             	3.00229169e+02
425             	3.00229154e+02
426             	3.00229128e+02
427             	3.00229136e+02
428             	3.00229179e+02
429             	3.00229115e+02
430             	3.00229096e+02
431             	3.00229165e+02
432             	3.00229151e+02
433             	3.00229141e+02
434             	3.00229175e+02
435             	3.00229171e+02
436             	3.00229155e+02
437             	3.00229160e+02
438             	3.00229193e+02
439             	3.00229218e+02
440             	3.00229222e+02
441             	3.00229232e+02
442             	3.00229239e+02
443             	3.00229223e+02
444             	3.00229221e+02
445             	3.00229217e+02
446             	3.00229160e+02
447             	3.00229144e+02
448             	3.00229106e+02
449             	3.00229038e+02
450             	3.00229034e+02
451             	3.00229040e+02
452             	3.00228992e+02
453             	3.00228992e+02
454             	3.00229023e+02
455             	3.00228942e+02
456             	3.00228930e+02
457             	3.00228943e+02
458             	3.00228933e+02
459             	3.00228995e+02
460             	3.00229020e+02
461             	3.00229016e+02
462             	3.00229067e+02
463             	3.00229122e+02
464             	3.00229125e+02
465             	3.00229173e+02
466             	3.00229219e+02
467             	3.00229211e+02
468             	3.00229246e+02
469             	3.00229278e+02
470             	3.00229260e+02
471             	3.00229292e+02
472             	3.00229299e+02
473             	3.00229284e+02
474             	3.00229306e+02
475             	3.00229225e+02
476             	3.00229272e+02
477             	3.00229234e+02
478             	3.00229207e+02
479             	3.00229226e+02
480             	3.00229191e+02
481             	3.00229165e+02
482             	3.00229209e+02
483             	3.00229131e+02
484             	3.00229189e+02
485             	3.00229160e+02
486             	3.00229132e+02
487             	3.00229121e+02
488             	3.00229161e+02
489             	3.00229156e+02
490             	3.00229169e+02
491             	3.00229187e+02
492             	3.00229218e+02
493             	3.00229235e+02
494             	3.00229289e+02
495             	3.00229350e+02
496             	3.00229389e+02
497             	3.00229407e+02
498             	3.00229400e+02
499             	3.00229375e+02
500             	3.00229370e+02
501             	3.00229381e+02
502             	3.00229369e+02
503             	3.00229349e+02
504             	3.00229347e+02
505             	3.00229328e+02
506             	3.00229268e+02
507             	3.00229246e+02
508             	3.00229213e+02
509             	3.00229151e+02
510             	3.00229198e+02
511             	3.00229142e+02
512             	3.00229084e+02
513             	3.00229084e+02
514             	3.00229103e+02
515             	3.00229139e+02
516             	3.00229117e+02
517             	3.00229149e+02
518             	3.00229190e+02
519             	3.00229275e+02
520             	3.00229329e+02
521             	3.00229361e+02
522             	3.00229409e+02
523             	3.00229465e+02
524             	3.00229465e+02
525             	3.00229515e+02
526             	3.00229538e+02
527             	3.00229567e+02
528             	3.00229548e+02
529             	3.00229549e+02
530             	3.00229570e+02
531             	3.00229502e+02
532             	3.00229494e+02
533             	3.00229513e+02
534             	3.00229469e+02
535             	3.00229439e+02
536             	3.00229426e+02
537             	3.00229377e+02
538             	3.00229324e+02
539             	3.00229336e+02
540             	3.00229288e+02
541             	3.00229262e+02
542             	3.00229273e+02
543             	3.00229245e+02
544             	3.00229216e+02
545             	3.00229242e+02
546             	3.00229231e+02
547             	3.00229255e+02
548             	3.00229298e+02
549             	3.00229314e+02
550             	3.00229386e+02
551             	3.00229408e+02
552             	3.00229405e+02
553             	3.00229410e+02
554             	3.00229441e+02
555             	3.00229423e+02
556             	3.00229400e+02
557             	3.00229414e+02
558             	3.00229384e+02
559             	3.00229356e+02
560             	3.00229358e+02
561             	3.00229324e+02
562             	3.00229294e+02
563             	3.00229248e+02
564             	3.00229256e+02
565             	3.00229244e+02
566             	3.00229230e+02
567             	3.00229238e+02
568             	3.00229247e+02
569             	3.00229222e+02
570             	3.00229242e+02
571             	3.00229232e+02
572             	3.00229203e+02
573             	3.00229215e+02
574             	3.00229263e+02
575             	3.00229225e+02
576             	3.00229236e+02
577             	3.00229265e+02
578             	3.00229242e+02
579             	3.00229273e+02
580             	3.00229314e+02
581             	3.00229314e+02
582             	3.00229346e+02
583             	3.00229371e+02
584             	3.00229371e+02
585             	3.00229397e+02
586             	3.00229404e+02
587             	3.00229397e+02
588             	3.00229385e+02
589             	3.00229424e+02
590             	3.00229394e+02
591             	3.00229383e+02
592             	3.00229389e+02
593             	3.00229400e+02
594             	3.00229355e+02
595             	3.00229325e+02
596             	3.00229310e+02
597             	3.00229271e+02
598             	3.00229231e+02
599             	3.00229242e+02
600             	3.00229201e+02
601             	3.00229181e+02
602             	3.00229184e+02
603             	3.00229162e+02
604             	3.00229141e+02
605             	3.00229168e+02
606             	3.00229162e+02
607             	3.00229175e+02
608             	3.00229212e+02
609             	3.00229222e+02
610             	3.00229244e+02
611             	3.00229308e+02
612             	3.00229280e+02
613             	3.00229276e+02
614             	3.00229303e+02
615             	3.00229293e+02
616             	3.00229283e+02
617             	3.00229276e+02
618             	3.00229303e+02
619             	3.00229323e+02
620             	3.00229309e+02
621             	3.00229332e+02
622             	3.00229332e+02
623             	3.00229256e+02
624             	3.00229282e+02
625             	3.00229274e+02
626             	3.00229217e+02
627             	3.00229200e+02
628             	3.00229177e+02
629             	3.00229155e+02
630             	3.00229106e+02
631             	3.00229076e+02
632             	3.00229081e+02
633             	3.00229053e+02
634             	3.00229088e+02
635             	3.00229076e+02
636             	3.00229056e+02
637             	3.00229053e+02
638             	3.00229083e+02
639             	3.00229082e+02
640             	3.00229088e+02
641             	3.00229135e+02
642             	3.00229147e+02
643             	3.00229179e+02
644             	3.00229224e+02
645             	3.00229249e+02
646             	3.00229279e+02
647             	3.00229328e+02
648             	3.00229335e+02
649             	3.00229317e+02
650             	3.00229354e+02
651             	3.00229340e+02
652             	3.00229303e+02
653             	3.00229309e+02
654             	3.00229279e+02
655             	3.00229272e+02
656             	3.00229254e+02
657             	3.00229262e+02
658             	3.00229262e+02
659             	3.00229239e+02
660             	3.00229239e+02
661             	3.00229241e+02
662             	3.00229209e+02
663             	3.00229213e+02
664             	3.00229206e+02
665             	3.00229201e+02
666             	3.00229212e+02
667             	3.00229270e+02
668             	3.00229251e+02
669             	3.00229279e+02
670             	3.00229313e+02
671             	3.00229318e+02
672             	3.00229360e+02
673             	3.00229393e+02
674             	3.00229385e+02
675             	3.00229412e+02
676             	3.00229416e+02
677             	3.00229409e+02
678             	3.00229423e+02
679             	3.00229421e+02
680             	3.00229415e+02
681             	3.00229419e+02
682             	3.00229422e+02
683             	3.00229403e+02
684             	3.00229363e+02
685             	3.00229346e+02
686             	3.00229361e+02
687             	3.00229339e+02
688             	3.00229328e+02
689             	3.00229333e+02
690             	3.00229309e+02
691             	3.00229288e+02
692             	3.00229307e+02
693             	3.00229282e+02
694             	3.00229265e+02
695             	3.00229275e+02
696             	3.00229265e+02
697             	3.00229244e+02
698             	3.00229267e+02
699             	3.00229246e+02
700             	3.00229249e+02
701             	3.00229258e+02
702             	3.00229261e+02
703             	3.00229248e+02
704             	3.00229273e+02
705             	3.00229266e+02
706             	3.00229271e+02
707             	3.00229297e+02
708             	3.00229291e+02
709             	3.00229285e+02
710             	3.00229284e+02
711             	3.00229303e+02
712             	3.00229319e+02
713             	3.00229296e+02
714             	3.00229310e+02
715             	3.00229312e+02
716             	3.00229283e+02
717             	3.00229283e+02
718             	3.00229286e+02
719             	3.00229249e+02
720             	3.00229255e+02
721             	3.00229254e+02
722             	3.00229230e+02
723             	3.00229229e+02
724             	3.00229223e+02
725             	3.00229188e+02
726             	3.00229194e+02
727             	3.00229193e+02
728             	3.00229200e+02
729             	3.00229179e+02
730             	3.00229174e+02
731             	3.00229198e+02
732             	3.00229197e+02
733             	3.00229188e+02
734             	3.00229227e+02
735             	3.00229224e+02
736             	3.00229231e+02
737             	3.00229259e+02
738             	3.00229256e+02
739             	3.00229243e+02
740             	3.00229272e+02
741             	3.00229260e+02
742             	3.00229256e+02
743             	3.00229276e+02
744             	3.00229263e+02
745             	3.00229253e+02
746             	3.00229243e+02
747             	3.00229263e+02
748             	3.00229274e+02
749             	3.00229243e+02
750             	3.00229245e+02
751             	3.00229240e+02
752             	3.00229209e+02
753             	3.00229207e+02
754             	3.00229205e+02
755             	3.00229174e+02
756             	3.00229179e+02
757             	3.00229180e+02
758             	3.00229158e+02
759             	3.00229167e+02
760             	3.00229174e+02
761             	3.00229150e+02
762             	3.00229164e+02
763             	3.00229175e+02
764             	3.00229160e+02
765             	3.00229176e+02
766             	3.00229192e+02
767             	3.00229200e+02
768             	3.00229180e+02
769             	3.00229167e+02
770             	3.00229178e+02
771             	3.00229151e+02
772             	3.00229136e+02
773             	3.00229141e+02
774             	3.00229118e+02
775             	3.00229088e+02
776             	3.00229095e+02
777             	3.00229061e+02
778             	3.00229041e+02
779             	3.00229045e+02
780             	3.00229021e+02
781             	3.00228998e+02
782             	3.00229005e+02
783             	3.00228985e+02
784             	3.00228974e+02
785             	3.00228966e+02
786             	3.00228991e+02
787             	3.00229007e+02
788             	3.00228984e+02
789             	3.00229017e+02
790             	3.00229043e+02
791             	3.00229035e+02
792             	3.00229057e+02
793             	3.00229071e+02
794             	3.00229055e+02
795             	3.00229070e+02
796             	3.00229085e+02
797             	3.00229067e+02
798             	3.00229083e+02
799             	3.00229116e+02
800             	3.00229082e+02
801             	3.00229092e+02
802             	3.00229101e+02
803             	3.00229085e+02
804             	3.00229096e+02
805             	3.00229112e+02
806             	3.00229096e+02
807             	3.00229117e+02
808             	3.00229125e+02
809             	3.00229108e+02
810             	3.00229129e+02
811             	3.00229146e+02
812             	3.00229150e+02
813             	3.00229122e+02
814             	3.00229113e+02
815             	3.00229133e+02
816             	3.00229112e+02
817             	3.00229102e+02
818             	3.00229109e+02
819             	3.00229086e+02
820             	3.00229064e+02
821             	3.00229078e+02
822             	3.00229058e+02
823             	3.00229041e+02
824             	3.00229051e+02
825             	3.00229031e+02
826             	3.00229015e+02
827             	3.00229003e+02
828             	3.00229014e+02
829             	3.00229015e+02
830             	3.00229011e+02
831             	3.00229012e+02
832             	3.00229016e+02
833             	3.00228999e+02
834             	3.00229010e+02
835             	3.00229021e+02
836             	3.00229008e+02
837             	3.00229027e+02
838             	3.00229043e+02
839             	3.00229032e+02
840             	3.00229049e+02
841             	3.00229061e+02
842             	3.00229074e+02
843             	3.00229059e+02
844             	3.00229049e+02
845             	3.00229065e+02
846             	3.00229045e+02
847             	3.00229013e+02
848             	3.00229030e+02
849             	3.00229007e+02
850             	3.00228982e+02
851             	3.00228990e+02
852             	3.00228967e+02
853             	3.00228950e+02
854             	3.00228963e+02
855             	3.00228946e+02
856             	3.00228935e+02
857             	3.00228964e+02
858             	3.00228942e+02
859             	3.00228935e+02
860             	3.00228931e+02
861             	3.00228952e+02
862             	3.00229007e+02
863             	3.00228984e+02
864             	3.00229006e+02
865             	3.00229025e+02
866             	3.00229021e+02
867             	3.00229042e+02
868             	3.00229064e+02
869             	3.00229050e+02
870             	3.00229050e+02
871             	3.00229070e+02
872             	3.00229051e+02
873             	3.00229067e+02
874             	3.00229078e+02
875             	3.00229055e+02
876             	3.00229064e+02
877             	3.00229065e+02
878             	3.00229066e+02
879             	3.00229038e+02
880             	3.00229021e+02
881             	3.00229031e+02
882             	3.00229013e+02
883             	3.00229004e+02
884             	3.00229021e+02
885             	3.00229003e+02
886             	3.00229000e+02
887             	3.00229018e+02
888             	3.00229005e+02
889             	3.00228996e+02
890             	3.00229017e+02
891             	3.00229031e+02
892             	3.00229019e+02
893             	3.00229041e+02
894             	3.00229036e+02
895             	3.00229038e+02
896             	3.00229064e+02
897             	3.00229054e+02
898             	3.00229049e+02
899             	3.00229072e+02
900             	3.00229059e+02
901             	3.00229051e+02
902             	3.00229041e+02
903             	3.00229059e+02
904             	3.00229071e+02
905             	3.00229051e+02
906             	3.00229052e+02
907             	3.00229058e+02
908             	3.00229034e+02
909             	3.00229040e+02
910             	3.00229042e+02
911             	3.00229042e+02
912             	3.00229014e+02
913             	3.00229008e+02
914             	3.00229027e+02
915             	3.00229017e+02
916             	3.00229009e+02
917             	3.00229025e+02
918             	3.00229014e+02
919             	3.00229008e+02
920             	3.00229026e+02
921             	3.00229014e+02
922             	3.00229006e+02
923             	3.00229024e+02
924             	3.00229011e+02
925             	3.00229004e+02
926             	3.00228997e+02
927             	3.00229013e+02
928             	3.00229029e+02
929             	3.00229017e+02
930             	3.00229028e+02
931             	3.00229037e+02
932             	3.00229023e+02
933             	3.00229035e+02