# Region        : cellZone pcb
# Cells         : 331
# Volume        : 3.96144733e-01
# Time          	volAverage(T)
1               	3.00064068e+02
2               	3.00189485e+02
3               	3.00363831e+02
4               	3.00572444e+02
5               	3.00805319e+02
6               	3.01060887e+02
7               	3.01341063e+02
8               	3.01641359e+02
9               	3.01960713e+02
10              	3.02303361e+02
11              	3.02650333e+02
12              	3.03007831e+02
13              	3.03374808e+02
14              	3.03744605e+02
15              	3.04109509e+02
16              	3.04470471e+02
17              	3.04832822e+02
18              	3.05199336e+02
19              	3.05567436e+02
20              	3.05934219e+02
21              	3.06296184e+02
22              	3.06659418e+02
23              	3.07026913e+02
24              	3.07389101e+02
25              	3.07738885e+02
26              	3.08075229e+02
27              	3.08405565e+02
28              	3.08730782e+02
29              	3.09043747e+02
30              	3.09347820e+02
31              	3.09642628e+02
32              	3.09925284e+02
33              	3.10197600e+02
34              	3.10460294e+02
35              	3.10712499e+02
36              	3.10957991e+02
37              	3.11212347e+02
38              	3.11474210e+02
39              	3.11709442e+02
40              	3.11928890e+02
41              	3.12148033e+02
42              	3.12365277e+02
43              	3.12572737e+02
44              	3.12770785e+02
45              	3.12962936e+02
46              	3.13169743e+02
47              	3.13378049e+02
48              	3.13569750e+02
49              	3.13755200e+02
50              	3.13918394e+02
51              	3.14055838e+02
52              	3.14193580e+02
53              	3.14331357e+02
54              	3.14468657e+02
55              	3.14615713e+02
56              	3.14750178e+02
57              	3.14890871e+02
58              	3.15043217e+02
59              	3.15211788e+02
60              	3.15394758e+02
61              	3.15551453e+02
62              	3.15676677e+02
63              	3.15820434e+02
64              	3.15945471e+02
65              	3.16048458e+02
66              	3.16139193e+02
67              	3.16225193e+02
68              	3.16313855e+02
69              	3.16393737e+02
70              	3.16466009e+02
71              	3.16532381e+02
72              	3.16598341e+02
73              	3.16681343e+02
74              	3.16751117e+02
75              	3.16812517e+02
76              	3.16870567e+02
77              	3.16933807e+02
78              	3.17001699e+02
79              	3.17065978e+02
80              	3.17135548e+02
81              	3.17216538e+02
82              	3.17295873e+02
83              	3.17363759e+02
84              	3.17421902e+02
85              	3.17484068e+02
86              	3.17558200e+02
87              	3.17611106e+02
88              	3.17673734e+02
89              	3.17721617e+02
90              	3.17757891e+02
91              	3.17802500e+02
92              	3.17855617e+02
93              	3.17926225e+02
94              	3.18014345e+02
95              	3.18102411e+02
96              	3.18189482e+02
97              	3.18250967e+02
98              	3.18285962e+02
99              	3.18341615e+02
100             	3.18385852e+02
101             	3.18413825e+02
102             	3.18439175e+02
103             	3.18463426e+02
104             	3.18504940e+02
105             	3.18555830e+02
106             	3.18598648e+02
107             	3.18633385e+02
108             	3.18681791e+02
109             	3.18740963e+02
110             	3.18769364e+02
111             	3.18813688e+02
112             	3.18876786e+02
113             	3.18911279e+02
114             	3.18923128e+02
115             	3.18932844e+02
116             	3.18955601e+02
117             	3.18985001e+02
118             	3.19031258e+02
119             	3.19066604e+02
120             	3.19082606e+02
121             	3.19099968e+02
122             	3.19120146e+02
123             	3.19149691e+02
124             	3.19177613e+02
125             	3.19200235e+02
126             	3.19224935e+02
127             	3.19257694e+02
128             	3.19287971e+02
129             	3.19304933e+02
130             	3.19308771e+02
131             	3.19318668e+02
132             	3.19336736e+02
133             	3.19364165e+02
134             	3.19385865e+02
135             	3.19395016e+02
136             	3.19395273e+02
137             	3.19397003e+02
138             	3.19410206e+02
139             	3.19418661e+02
140             	3.19430100e+02
141             	3.19468498e+02
142             	3.19527020e+02
143             	3.19546904e+02
144             	3.19535155e+02
145             	3.19539955e+02
146             	3.19570938e+02
147             	3.19625783e+02
148             	3.19663617e+02
149             	3.19709518e+02
150             	3.19741913e+02
151             	3.19753346e+02
152             	3.19746236e+02
153             	3.19734961e+02
154             	3.19724176e+02
155             	3.19713178e+02
156             	3.19700776e+02
157             	3.19700151e+02
158             	3.19711297e+02
159             	3.19710278e+02
160             	3.19697944e+02
161             	3.19684446e+02
162             	3.19670096e+02
163             	3.19670830e+02
164             	3.19670943e+02
165             	3.19678296e+02
166             	3.19692993e+02
167             	3.19706722e+02
168             	3.19718265e+02
169             	3.19736139e+02
170             	3.19761603e+02
171             	3.19792784e+02
172             	3.19818506e+02
173             	3.19834001e+02
174             	3.19842083e+02
175             	3.19847402e+02
176             	3.19845486e+02
177             	3.19843990e+02
178             	3.19835974e+02
179             	3.19822683e+02
180             	3.19823797e+02
181             	3.19823446e+02
182             	3.19819391e+02
183             	3.19821174e+02
184             	3.19831182e+02
185             	3.19843912e+02
186             	3.19852777e+02
187             	3.19861434e+02
188             	3.19882839e+02
189             	3.19910960e+02
190             	3.19931677e+02
191             	3.19949809e+02
192             	3.19958999e+02
193             	3.19972985e+02
194             	3.19982250e+02
195             	3.19979862e+02
196             	3.19973406e+02
197             	3.19968329e+02
198             	3.19967738e+02
199             	3.19973119e+02
200             	3.19983509e+02
201             	3.19997228e+02
202             	3.20005451e+02
203             	3.20019371e+02
204             	3.20039342e+02
205             	3.20057228e+02
206             	3.20070554e+02
207             	3.20080103e+02
208             	3.20086921e+02
209             	3.20091384e+02
210             	3.20093616e+02
211             	3.20094233e+02
212             	3.20094406e+02
213             	3.20098498e+02
214             	3.20101484e+02
215             	3.20104147e+02
216             	3.20108552e+02
217             	3.20114598e+02
218             	3.20123005e+02
219             	3.20133080e+02
220             	3.20142538e+02
221             	3.20153140e+02
222             	3.20161069e+02
223             	3.20170243e+02
224             	3.20181098e+02
225             	3.20191386e+02
226             	3.20200242e+02
227             	3.20208175e+02
228             	3.20215253e+02
229             	3.20221287e+02
230             	3.20226025e+02
231             	3.20229331e+02
232             	3.20231437e+02
233             	3.20232172e+02
234             	3.20231762e+02
235             	3.20233611e+02
236             	3.20234614e+02
237             	3.20234989e+02
238             	3.20237201e+02
239             	3.20240145e+02
240             	3.20245713e+02
241             	3.20253409e+02
242             	3.20261821e+02
243             	3.20270802e+02
244             	3.20279330e+02
245             	3.20284790e+02
246             	3.20292018e+02
247             	3.20300535e+02
248             	3.20308836e+02
249             	3.20317196e+02
250             	3.20325334e+02
251             	3.20331492e+02
252             	3.20334345e+02
253             	3.20336951e+02
254             	3.20338359e+02
255             	3.20339862e+02
256             	3.20340680e+02
257             	3.20344191e+02
258             	3.20347234e+02
259             	3.20351195e+02
260             	3.20358014e+02
261             	3.20365783e+02
262             	3.20374400e+02
263             	3.20384578e+02
264             	3.20394090e+02
265             	3.20410979e+02
266             	3.20420877e+02
267             	3.20420988e+02
268             	3.20417947e+02
269             	3.20417103e+02
270             	3.20418304e+02
271             	3.20419928e+02
272             	3.20421402e+02
273             	3.20423313e+02
274             	3.20424146e+02
275             	3.20425069e+02
276             	3.20423195e+02
277             	3.20421641e+02
278             	3.20420222e+02
279             	3.20416435e+02
280             	3.20414373e+02
281             	3.20412545e+02
282             	3.20413510e+02
283             	3.20415318e+02
284             	3.20420188e+02
285             	3.20425053e+02
286             	3.20428860e+02
287             	3.20435871e+02
288             	3.20443545e+02
289             	3.20450879e+02
290             	3.20457809e+02
291             	3.20463952e+02
292             	3.20467169e+02
293             	3.20468107e+02
294             	3.20472456e+02
295             	3.20472955e+02
296             	3.20469870e+02
297             	3.20468618e+02
298             	3.20469557e+02
299             	3.20471944e+02
300             	3.20473168e+02
301             	3.20475858e+02
302             	3.20476646e+02
303             	3.20476931e+02
304             	3.20475360e+02
305             	3.20475177e+02
306             	3.20476364e+02
307             	3.20476894e+02
308             	3.20476028e+02
309             	3.20474606e+02
310             	3.20474010e+02
311             	3.20474318e+02
312             	3.20474459e+02
313             	3.20472314e+02
314             	3.20472209e+02
315             	3.20471101e+02
316             	3.20472058e+02
317             	3.20473545e+02
318             	3.20476627e+02
319             	3.20480859e+02
320             	3.20484706e+02
321             	3.20487809e+02
322             	3.20489272e+02
323             	3.20491452e+02
324             	3.20493842e+02
325             	3.20493301e+02
326             	3.20492586e+02
327             	3.20489851e+02
328             	3.20487903e+02
329             	3.20486953e+02
330             	3.20486561e+02
331             	3.20487114e+02
332             	3.20488965e+02
333             	3.20490389e+02
334             	3.20494224e+02
335             	3.20496184e+02
336             	3.20498971e+02
337             	3.20500605e+02
338             	3.20500587e+02
339             	3.20503307e+02
340             	3.20503954e+02
341             	3.20504848e+02
342             	3.20506312e+02
343             	3.20507521e+02
344             	3.20508119e+02
345             	3.20507959e+02
346             	3.20507856e+02
347             	3.20506129e+02
348             	3.20503732e+02
349             	3.20500886e+02
350             	3.20500277e+02
351             	3.20499355e+02
352             	3.20499997e+02
353             	3.20500957e+02
354             	3.20504096e+02
355             	3.20507011e+02
356             	3.20509454e+02
357             	3.20511980e+02
358             	3.20514433e+02
359             	3.20517044e+02
360             	3.20518839e+02
361             	3.20518982e+02
362             	3.20518146e+02
363             	3.20517595e+02
364             	3.20516543e+02
365             	3.20516858e+02
366             	3.20515050e+02
367             	3.20513655e+02
368             	3.20513624e+02
369             	3.20513914e+02
370             	3.20513726e+02
371             	3.20512505e+02
372             	3.20513593e+02
373             	3.20514537e+02
374             	3.20516490e+02
375             	3.20517786e+02
376             	3.20520678e+02
377             	3.20522208e+02
378             	3.20523783e+02
379             	3.20525650e+02
380             	3.20526695e+02
381             	3.20526873e+02
382             	3.20526347e+02
383             	3.20526455e+02
384             	3.20524906e+02
385             	3.20521503e+02
386             	3.20520799e+02
387             	3.20519601e+02
388             	3.20519941e+02
389             	3.20519686e+02
390             	3.20521248e+02
391             	3.20522905e+02
392             	3.20524796e+02
393             	3.20526608e+02
394             	3.20527350e+02
395             	3.20526770e+02
396             	3.20525170e+02
397             	3.20523065e+02
398             	3.20521932e+02
399             	3.20520706e+02
400             	3.20519325e+02
401             	3.20518964e+02
402             	3.20518157e+02
403             	3.20518236e+02
404             	3.20518370e+02
405             	3.20520973e+02
406             	3.20521952e+02
407             	3.20524796e+02
408             	3.20525459e+02
409             	3.20527209e+02
410             	3.20527530e+02
411             	3.20529572e+02
412             	3.20529439e+02
413             	3.20528994e+02
414             	3.20528120e+02
415             	3.20527596e+02
416             	3.20525489e+02
417             	3.20523995e+02
418             	3.20523847e+02
419             	3.20523336e+02
420             	3.20522132e+02
421             	3.20521666e+02
422             	3.20521159e+02
423             	3.20522834e+02
424             	3.20522869e+02
425             	3.20523753e+02
426             	3.20524767e+02
427             	3.20526811e+02
428             	3.20528528e+02
429             	3.20530562e+02
430             	3.20531579e+02
431             	3.20533481e+02
432             	3.20533652e+02
433             	3.20534431e+02
434             	3.20532831e+02
435             	3.20531901e+02
436             	3.20530161e+02
437             	3.20529389e+02
438             	3.20527752e+02
439             	3.20527021e+02
440             	3.20525820e+02
441             	3.20525036e+02
442             	3.20524179e+02
443             	3.20524571e+02
444             	3.20524688e+02
445             	3.20524631e+02
446             	3.20525264e+02
447             	3.20525703e+02
448             	3.20526066e+02
449             	3.20525948e+02
450             	3.20527661e+02
451             	3.20527944e+02
452             	3.20528667e+02
453             	3.20529959e+02
454             	3.20530697e+02
455             	3.20530622e+02
456             	3.20530642e+02
457             	3.20529815e+02
458             	3.20529438e+02
459             	3.20528348e+02
460             	3.20528485e+02
461             	3.20527493e+02
462             	3.20528005e+02
463             	3.20527335e+02
464             	3.20527764e+02
465             	3.20527559e+02
466             	3.20528360e+02
467             	3.20527982e+02
468             	3.20528881e+02
469             	3.20528954e+02
470             	3.20530515e+02
471             	3.20530886e+02
472             	3.20532700e+02
473             	3.20532944e+02
474             	3.20534185e+02
475             	3.20533906e+02
476             	3.20534277e+02
477             	3.20534149e+02
478             	3.20534421e+02
479             	3.20533767e+02
480             	3.20534127e+02
481             	3.20533261e+02
482             	3.20533659e+02
483             	3.20532469e+02
484             	3.20532468e+02
485             	3.20531261e+02
486             	3.20531386e+02
487             	3.20530769e+02
488             	3.20531832e+02
489             	3.20531529e+02
490             	3.20532632e+02
491             	3.20532416e+02
492             	3.20532975e+02
493             	3.20533725e+02
494             	3.20534156e+02
495             	3.20534677e+02
496             	3.20534608e+02
497             	3.20534848e+02
498             	3.20534392e+02
499             	3.20534973e+02
500             	3.20533774e+02
501             	3.20533407e+02
502             	3.20532973e+02
503             	3.20532539e+02
504             	3.20532017e+02
505             	3.20531877e+02
506             	3.20531777e+02
507             	3.20531562e+02
508             	3.20531572e+02
509             	3.20531574e+02
510             	3.20531922e+02
511             	3.20532078e+02
512             	3.20532360e+02
513             	3.20532340e+02
514             	3.20533294e+02
515             	3.20533211e+02
516             	3.20534511e+02
517             	3.20533766e+02
518             	3.20533634e+02
519             	3.20533082e+02
520             	3.20533274e+02
521             	3.20532567e+02
522             	3.20532829e+02
523             	3.20531980e+02
524             	3.20532679e+02
525             	3.20532098e+02
526             	3.20532669e+02
527             	3.20532727e+02
528             	3.20534436e+02
529             	3.20534306e+02
530             	3.20535113e+02
531             	3.20534547e+02
532             	3.20534997e+02
533             	3.20534496e+02
534             	3.20535427e+02
535             	3.20534488e+02
536             	3.20534214e+02
537             	3.20533259e+02
538             	3.20534022e+02
539             	3.20533212e+02
540             	3.20533316e+02
541             	3.20532366e+02
542             	3.20532792e+02
543             	3.20531959e+02
544             	3.20532316e+02
545             	3.20531491e+02
546             	3.20531745e+02
547             	3.20531049e+02
548             	3.20532144e+02
549             	3.20531707e+02
550             	3.20532175e+02
551             	3.20532047e+02
552             	3.20532989e+02
553             	3.20532724e+02
554             	3.20533555e+02
555             	3.20533136e+02
556             	3.20533728e+02
557             	3.20533230e+02
558             	3.20533904e+02
559             	3.20533242e+02
560             	3.20533620e+02
561             	3.20532729e+02
562             	3.20533104e+02
563             	3.20532069e+02
564             	3.20532070e+02
565             	3.20531138e+02
566             	3.20531602e+02
567             	3.20530905e+02
568             	3.20531325e+02
569             	3.20530928e+02
570             	3.20531847e+02
571             	3.20531546e+02
572             	3.20532305e+02
573             	3.20532098e+02
574             	3.20533237e+02
575             	3.20532717e+02
576             	3.20532972e+02
577             	3.20532445e+02
578             	3.20533636e+02
579             	3.20532821e+02
580             	3.20532758e+02
581             	3.20532431e+02
582             	3.20533191e+02
583             	3.20532664e+02
584             	3.20533132e+02
585             	3.20532530e+02
586             	3.20533478e+02
587             	3.20532676e+02
588             	3.20532748e+02
589             	3.20532112e+02
590             	3.20533310e+02
591             	3.20532524e+02
592             	3.20532462e+02
593             	3.20532000e+02
594             	3.20533012e+02
595             	3.20532293e+02
596             	3.20532424e+02
597             	3.20532079e+02
598             	3.20533356e+02
599             	3.20532819e+02
600             	3.20533057e+02
601             	3.20532686e+02
602             	3.20533602e+02
603             	3.20533077e+02
604             	3.20533470e+02
605             	3.20532941e+02
606             	3.20533921e+02
607             	3.20533132e+02
608             	3.20533063e+02
609             	3.20532572e+02
610             	3.20533337e+02
611             	3.20532658e+02
612             	3.20532932e+02
613             	3.20532387e+02
614             	3.20533531e+02
615             	3.20532746e+02
616             	3.20532747e+02
617             	3.20532066e+02
618             	3.20533283e+02
619             	3.20532415e+02
620             	3.20532376e+02
621             	3.20531658e+02
622             	3.20532837e+02
623             	3.20532086e+02
624             	3.20532144e+02
625             	3.20531744e+02
626             	3.20532863e+02
627             	3.20532236e+02
628             	3.20532443e+02
629             	3.20532014e+02
630             	3.20533184e+02
631             	3.20532601e+02
632             	3.20532842e+02
633             	3.20532415e+02
634             	3.20533667e+02
635             	3.20533047e+02
636             	3.20533151e+02
637             	3.20532712e+02
638             	3.20533663e+02
639             	3.20532921e+02
640             	3.20532979e+02
641             	3.20532406e+02
642             	3.20533492e+02
643             	3.20532690e+02
644             	3.20532646e+02
645             	3.20532067e+02
646             	3.20533018e+02
647             	3.20532229e+02
648             	3.20532253e+02
649             	3.20531867e+02
650             	3.20532749e+02
651             	3.20532159e+02
652             	3.20532640e+02
653             	3.20532121e+02
654             	3.20533035e+02
655             	3.20532494e+02
656             	3.20532888e+02
657             	3.20532620e+02
658             	3.20533616e+02
659             	3.20533084e+02
660             	3.20533455e+02
661             	3.20533000e+02
662             	3.20534191e+02
663             	3.20533437e+02
664             	3.20533357e+02
665             	3.20532706e+02
666             	3.20533433e+02
667             	3.20532506e+02
668             	3.20532439e+02
669             	3.20531711e+02
670             	3.20532706e+02
671             	3.20531885e+02
672             	3.20531847e+02
673             	3.20531320e+02
674             	3.20532209e+02
675             	3.20531514e+02
676             	3.20531741e+02
677             	3.20531198e+02
678             	3.20532280e+02
679             	3.20531582e+02
680             	3.20531716e+02
681             	3.20531425e+02
682             	3.20532606e+02
683             	3.20532136e+02
684             	3.20532509e+02
685             	3.20532188e+02
686             	3.20533280e+02
687             	3.20532768e+02
688             	3.20533050e+02
689             	3.20532661e+02
690             	3.20533871e+02
691             	3.20533149e+02
692             	3.20533123e+02
693             	3.20532641e+02
694             	3.20533328e+02
695             	3.20532452e+02
696             	3.20532672e+02
697             	3.20531805e+02
698             	3.20532311e+02
699             	3.20531596e+02
700             	3.20532004e+02
701             	3.20531522e+02
702             	3.20532447e+02
703             	3.20531883e+02
704             	3.20532169e+02
705             	3.20531685e+02
706             	3.20532890e+02
707             	3.20532143e+02
708             	3.20532191e+02
709             	3.20531566e+02
710             	3.20532727e+02
711             	3.20531999e+02
712             	3.20532035e+02
713             	3.20531601e+02
714             	3.20532657e+02
715             	3.20532106e+02
716             	3.20532390e+02
717             	3.20532060e+02
718             	3.20533258e+02
719             	3.20532634e+02
720             	3.20532754e+02
721             	3.20532312e+02
722             	3.20533315e+02
723             	3.20532565e+02
724             	3.20532568e+02
725             	3.20532052e+02
726             	3.20533028e+02
727             	3.20532271e+02
728             	3.20532322e+02
729             	3.20531776e+02
730             	3.20532844e+02
731             	3.20532078e+02
732             	3.20532067e+02
733             	3.20531533e+02
734             	3.20532541e+02
735             	3.20531790e+02
736             	3.20531826e+02
737             	3.20531314e+02
738             	3.20532477e+02
739             	3.20531759e+02
740             	3.20531793e+02
741             	3.20531315e+02
742             	3.20532294e+02
743             	3.20531630e+02
744             	3.20531860e+02
745             	3.20531382e+02
746             	3.20532687e+02
747             	3.20532058e+02
748             	3.20532232e+02
749             	3.20531747e+02
750             	3.20533046e+02
751             	3.20532373e+02
752             	3.20532468e+02
753             	3.20531975e+02
754             	3.20533089e+02
755             	3.20532393e+02
756             	3.20532462e+02
757             	3.20531996e+02
758             	3.20533061e+02
759             	3.20532388e+02
760             	3.20532523e+02
761             	3.20532062e+02
762             	3.20533370e+02
763             	3.20532661e+02
764             	3.20532680e+02
765             	3.20532182e+02
766             	3.20533102e+02
767             	3.20532440e+02
768             	3.20532692e+02
769             	3.20532144e+02
770             	3.20533162e+02
771             	3.20532390e+02
772             	3.20532352e+02
773             	3.20531868e+02
774             	3.20532695e+02
775             	3.20532002e+02
776             	3.20532263e+02
777             	3.20531612e+02
778             	3.20532534e+02
779             	3.20531721e+02
780             	3.20531706e+02
781             	3.20531205e+02
782             	3.20532132e+02
783             	3.20531387e+02
784             	3.20531436e+02
785             	3.20531117e+02
786             	3.20531914e+02
787             	3.20531441e+02
788             	3.20532345e+02
789             	3.20531680e+02
790             	3.20531922e+02
791             	3.20531396e+02
792             	3.20532603e+02
793             	3.20531930e+02
794             	3.20532050e+02
795             	3.20531589e+02
796             	3.20532565e+02
797             	3.20531828e+02
798             	3.20531885e+02
799             	3.20531752e+02
800             	3.20532288e+02
801             	3.20531984e+02
802             	3.20532856e+02
803             	3.20532256e+02
804             	3.20532790e+02
805             	3.20531983e+02
806             	3.20532251e+02
807             	3.20531995e+02
808             	3.20533357e+02
809             	3.20532819e+02
810             	3.20532974e+02
811             	3.20532548e+02
812             	3.20533407e+02
813             	3.20532579e+02
814             	3.20532626e+02
815             	3.20531909e+02
816             	3.20532882e+02
817             	3.20532053e+02
818             	3.20532018e+02
819             	3.20531448e+02
820             	3.20532522e+02
821             	3.20531783e+02
822             	3.20531805e+02
823             	3.20531280e+02
824             	3.20532289e+02
825             	3.20531626e+02
826             	3.20531852e+02
827             	3.20531292e+02
828             	3.20532316e+02
829             	3.20531715e+02
830             	3.20531898e+02
831             	3.20531593e+02
832             	3.20532684e+02
833             	3.20532112e+02
834             	3.20532339e+02
835             	3.20531799e+02
836             	3.20532977e+02
837             	3.20532174e+02
838             	3.20532081e+02
839             	3.20531523e+02
840             	3.20532296e+02
841             	3.20531683e+02
842             	3.20532217e+02
843             	3.20531573e+02
844             	3.20532189e+02
845             	3.20531600e+02
846             	3.20532195e+02
847             	3.20531705e+02
848             	3.20532540e+02
849             	3.20531909e+02
850             	3.20532295e+02
851             	3.20531623e+02
852             	3.20532159e+02
853             	3.20531476e+02
854             	3.20531903e+02
855             	3.20531244e+02
856             	3.20531821e+02
857             	3.20531328e+02
858             	3.20532165e+02
859             	3.20531426e+02
860             	3.20531597e+02
861             	3.20531181e+02
862             	3.20531917e+02
863             	3.20531409e+02
864             	3.20532167e+02
865             	3.20531529e+02
866             	3.20531847e+02
867             	3.20531459e+02
868             	3.20532726e+02
869             	3.20532067e+02
870             	3.20532088e+02
871             	3.20531524e+02
872             	3.20532716e+02
873             	3.20531916e+02
874             	3.20531848e+02
875             	3.20531245e+02
876             	3.20532129e+02
877             	3.20531316e+02
878             	3.20531347e+02
879             	3.20530898e+02
880             	3.20531717e+02
881             	3.20531235e+02
882             	3.20531864e+02
883             	3.20531362e+02
884             	3.20532093e+02
885             	3.20531467e+02
886             	3.20531813e+02
887             	3.20531317e+02
888             	3.20532417e+02
889             	3.20531659e+02
890             	3.20531640e+02
891             	3.20531076e+02
892             	3.20531907e+02
893             	3.20531135e+02
894             	3.20531267e+02
895             	3.20530678e+02
896             	3.20531854e+02
897             	3.20531043e+02
898             	3.20531022e+02
899             	3.20530368e+02
900             	3.20531461e+02
901             	3.20530691e+02
902             	3.20530697e+02
903             	3.20530234e+02
904             	3.20531346e+02
905             	3.20530666e+02
906             	3.20530794e+02
907             	3.20530253e+02
908             	3.20531527e+02
909             	3.20530910e+02
910             	3.20531083e+02
911             	3.20530704e+02
912             	3.20531792e+02
913             	3.20531205e+02
914             	3.20531410e+02
915             	3.20530992e+02
916             	3.20532344e+02
917             	3.20531666e+02
918             	3.20531722e+02
919             	3.20531207e+02
920             	3.20532201e+02
921             	3.20531484e+02
922             	3.20531578e+02
923             	3.20531057e+02
924             	3.20532157e+02
925             	3.20531452e+02
926             	3.20531525e+02
927             	3.20531070e+02
928             	3.20532159e+02
929             	3.20531525e+02
930             	3.20531687e+02
931             	3.20531272e+02
932             	3.20532404e+02
933             	3.20531779e+02