# Region        : cellZone component_3
# Cells         : 80
# Volume        : 1.19930247e-01
# Time          	volAverage(T)
1               	3.02118016e+02
2               	3.04203415e+02
3               	3.06046906e+02
4               	3.07751101e+02
5               	3.09394095e+02
6               	3.10996654e+02
7               	3.12561718e+02
8               	3.14082374e+02
9               	3.15584934e+02
10              	3.17069380e+02
11              	3.18520514e+02
12              	3.19918811e+02
13              	3.21288806e+02
14              	3.22613922e+02
15              	3.23950853e+02
16              	3.25290082e+02
17              	3.26513105e+02
18              	3.27681531e+02
19              	3.28798776e+02
20              	3.29857117e+02
21              	3.30856487e+02
22              	3.31784223e+02
23              	3.32611896e+02
24              	3.33319176e+02
25              	3.34039347e+02
26              	3.34780477e+02
27              	3.35590751e+02
28              	3.36479426e+02
29              	3.37400421e+02
30              	3.38362728e+02
31              	3.39325312e+02
32              	3.40226875e+02
33              	3.41120731e+02
34              	3.41935110e+02
35              	3.42748906e+02
36              	3.43577648e+02
37              	3.44385520e+02
38              	3.45178341e+02
39              	3.45912725e+02
40              	3.46596225e+02
41              	3.47244046e+02
42              	3.47893983e+02
43              	3.48531357e+02
44              	3.49083525e+02
45              	3.49613586e+02
46              	3.50085304e+02
47              	3.50559828e+02
48              	3.50971709e+02
49              	3.51340220e+02
50              	3.51686236e+02
51              	3.51999879e+02
52              	3.52375002e+02
53              	3.52818891e+02
54              	3.53271930e+02
55              	3.53656257e+02
56              	3.53959468e+02
57              	3.54216015e+02
58              	3.54538615e+02
59              	3.54886654e+02
60              	3.55218462e+02
61              	3.55556870e+02
62              	3.55900149e+02
63              	3.56287690e+02
64              	3.56700878e+02
65              	3.57081838e+02
66              	3.57420622e+02
67              	3.57693639e+02
68              	3.57948998e+02
69              	3.58172525e+02
70              	3.58409779e+02
71              	3.58654133e+02
72              	3.58907710e+02
73              	3.59137853e+02
74              	3.59344268e+02
75              	3.59522391e+02
76              	3.59669956e+02
77              	3.59801768e+02
78              	3.59928064e+02
79              	3.60059448e+02
80              	3.60191072e+02
81              	3.60326675e+02
82              	3.60466862e+02
83              	3.60602255e+02
84              	3.60732016e+02
85              	3.60847145e+02
86              	3.60938537e+02
87              	3.61030207e+02
88              	3.61135669e+02
89              	3.61269957e+02
90              	3.61415584e+02
91              	3.61580459e+02
92              	3.61758162e+02
93              	3.61973147e+02
94              	3.62205073e+02
95              	3.62477529e+02
96              	3.62742806e+02
97              	3.62958670e+02
98              	3.63078945e+02
99              	3.63138366e+02
100             	3.63265972e+02
101             	3.63406937e+02
102             	3.63546020e+02
103             	3.63703151e+02
104             	3.63869665e+02
105             	3.64012352e+02
106             	3.64136664e+02
107             	3.64231946e+02
108             	3.64328283e+02
109             	3.64429859e+02
110             	3.64536905e+02
111             	3.64659229e+02
112             	3.64791448e+02
113             	3.64783268e+02
114             	3.64662584e+02
115             	3.64645449e+02
116             	3.64615529e+02
117             	3.64571578e+02
118             	3.64502216e+02
119             	3.64442334e+02
120             	3.64317929e+02
121             	3.64223634e+02
122             	3.64158852e+02
123             	3.64089830e+02
124             	3.64011800e+02
125             	3.63910778e+02
126             	3.63836510e+02
127             	3.63767565e+02
128             	3.63745037e+02
129             	3.63747653e+02
130             	3.63772776e+02
131             	3.63819589e+02
132             	3.63885364e+02
133             	3.63961790e+02
134             	3.64032710e+02
135             	3.64089080e+02
136             	3.64157327e+02
137             	3.64214275e+02
138             	3.64251175e+02
139             	3.64274934e+02
140             	3.64299852e+02
141             	3.64328123e+02
142             	3.64364497e+02
143             	3.64411898e+02
144             	3.64462456e+02
145             	3.64521954e+02
146             	3.64584491e+02
147             	3.64666639e+02
148             	3.64752444e+02
149             	3.64840353e+02
150             	3.64921006e+02
151             	3.65007736e+02
152             	3.65108232e+02
153             	3.65190618e+02
154             	3.65298315e+02
155             	3.65362850e+02
156             	3.65442758e+02
157             	3.65541511e+02
158             	3.65638363e+02
159             	3.65694733e+02
160             	3.65741164e+02
161             	3.65806034e+02
162             	3.65878544e+02
163             	3.65941567e+02
164             	3.66010296e+02
165             	3.66088244e+02
166             	3.66139280e+02
167             	3.66214004e+02
168             	3.66292347e+02
169             	3.66384146e+02
170             	3.66466999e+02
171             	3.66550137e+02
172             	3.66613244e+02
173             	3.66646877e+02
174             	3.66697205e+02
175             	3.66757390e+02
176             	3.66810699e+02
177             	3.66862830e+02
178             	3.66910676e+02
179             	3.66954585e+02
180             	3.66990037e+02
181             	3.67037110e+02
182             	3.67096243e+02
183             	3.67171358e+02
184             	3.67256710e+02
185             	3.67311447e+02
186             	3.67374077e+02
187             	3.67462560e+02
188             	3.67560479e+02
189             	3.67635714e+02
190             	3.67723635e+02
191             	3.67824122e+02
192             	3.67928487e+02
193             	3.68030722e+02
194             	3.68132902e+02
195             	3.68232347e+02
196             	3.68302413e+02
197             	3.68375785e+02
198             	3.68440441e+02
199             	3.68505518e+02
200             	3.68571301e+02
201             	3.68624899e+02
202             	3.68684011e+02
203             	3.68745964e+02
204             	3.68790166e+02
205             	3.68832429e+02
206             	3.68887311e+02
207             	3.68927680e+02
208             	3.69023019e+02
209             	3.69132530e+02
210             	3.69158016e+02
211             	3.69232259e+02
212             	3.69315424e+02
213             	3.69326775e+02
214             	3.69323403e+02
215             	3.69328972e+02
216             	3.69334650e+02
217             	3.69337391e+02
218             	3.69334101e+02
219             	3.69335271e+02
220             	3.69342336e+02
221             	3.69325360e+02
222             	3.69336921e+02
223             	3.69350620e+02
224             	3.69378211e+02
225             	3.69397597e+02
226             	3.69386417e+02
227             	3.69380733e+02
228             	3.69403188e+02
229             	3.69427354e+02
230             	3.69446753e+02
231             	3.69471202e+02
232             	3.69478601e+02
233             	3.69478977e+02
234             	3.69490175e+02
235             	3.69487636e+02
236             	3.69454010e+02
237             	3.69432035e+02
238             	3.69421568e+02
239             	3.69433134e+02
240             	3.69437638e+02
241             	3.69453019e+02
242             	3.69477990e+02
243             	3.69510262e+02
244             	3.69553877e+02
245             	3.69576131e+02
246             	3.69645710e+02
247             	3.69730209e+02
248             	3.69780571e+02
249             	3.69869992e+02
250             	3.69933874e+02
251             	3.69974880e+02
252             	3.69993826e+02
253             	3.70002752e+02
254             	3.70000668e+02
255             	3.69989519e+02
256             	3.69980001e+02
257             	3.69974330e+02
258             	3.69962090e+02
259             	3.69965191e+02
260             	3.69945695e+02
261             	3.69963205e+02
262             	3.69998477e+02
263             	3.69996540e+02
264             	3.70018533e+02
265             	3.69941124e+02
266             	3.69921037e+02
267             	3.69941968e+02
268             	3.69970594e+02
269             	3.70016082e+02
270             	3.70072644e+02
271             	3.70133791e+02
272             	3.70188471e+02
273             	3.70210844e+02
274             	3.70248617e+02
275             	3.70266695e+02
276             	3.70254667e+02
277             	3.70244077e+02
278             	3.70258273e+02
279             	3.70286230e+02
280             	3.70308059e+02
281             	3.70351538e+02
282             	3.70396575e+02
283             	3.70425815e+02
284             	3.70454235e+02
285             	3.70497507e+02
286             	3.70554030e+02
287             	3.70569683e+02
288             	3.70612447e+02
289             	3.70690387e+02
290             	3.70779158e+02
291             	3.70862407e+02
292             	3.70929334e+02
293             	3.70988380e+02
294             	3.71034633e+02
295             	3.71070472e+02
296             	3.71087375e+02
297             	3.71108664e+02
298             	3.71129543e+02
299             	3.71146882e+02
300             	3.71155995e+02
301             	3.71159166e+02
302             	3.71160177e+02
303             	3.71161546e+02
304             	3.71159381e+02
305             	3.71162930e+02
306             	3.71161680e+02
307             	3.71160358e+02
308             	3.71166552e+02
309             	3.71198061e+02
310             	3.71232552e+02
311             	3.71271333e+02
312             	3.71325796e+02
313             	3.71398332e+02
314             	3.71484088e+02
315             	3.71554828e+02
316             	3.71619413e+02
317             	3.71679860e+02
318             	3.71740034e+02
319             	3.71795450e+02
320             	3.71844405e+02
321             	3.71886356e+02
322             	3.71926218e+02
323             	3.71970006e+02
324             	3.72002860e+02
325             	3.72032959e+02
326             	3.72059448e+02
327             	3.72082943e+02
328             	3.72109972e+02
329             	3.72147072e+02
330             	3.72185491e+02
331             	3.72245638e+02
332             	3.72282719e+02
333             	3.72317962e+02
334             	3.72364774e+02
335             	3.72404397e+02
336             	3.72434260e+02
337             	3.72498415e+02
338             	3.72583170e+02
339             	3.72639525e+02
340             	3.72704693e+02
341             	3.72771732e+02
342             	3.72799378e+02
343             	3.72829794e+02
344             	3.72870251e+02
345             	3.72903638e+02
346             	3.72937712e+02
347             	3.72960435e+02
348             	3.72984989e+02
349             	3.73012914e+02
350             	3.73028326e+02
351             	3.73038202e+02
352             	3.73061313e+02
353             	3.73091139e+02
354             	3.73134371e+02
355             	3.73178437e+02
356             	3.73229610e+02
357             	3.73281817e+02
358             	3.73338849e+02
359             	3.73395761e+02
360             	3.73462271e+02
361             	3.73535667e+02
362             	3.73605820e+02
363             	3.73674941e+02
364             	3.73715984e+02
365             	3.73757555e+02
366             	3.73797993e+02
367             	3.73844114e+02
368             	3.73889529e+02
369             	3.73934088e+02
370             	3.73975073e+02
371             	3.74007829e+02
372             	3.74042905e+02
373             	3.74091652e+02
374             	3.74147531e+02
375             	3.74204325e+02
376             	3.74261437e+02
377             	3.74325296e+02
378             	3.74399196e+02
379             	3.74471115e+02
380             	3.74558068e+02
381             	3.74623745e+02
382             	3.74679423e+02
383             	3.74735759e+02
384             	3.74786360e+02
385             	3.74834208e+02
386             	3.74876491e+02
387             	3.74910708e+02
388             	3.74934485e+02
389             	3.74945419e+02
390             	3.74953755e+02
391             	3.74958169e+02
392             	3.74953927e+02
393             	3.74949196e+02
394             	3.74942957e+02
395             	3.74938559e+02
396             	3.74935218e+02
397             	3.74942540e+02
398             	3.74955062e+02
399             	3.74970442e+02
400             	3.74977540e+02
401             	3.74980433e+02
402             	3.74989005e+02
403             	3.75011138e+02
404             	3.75046625e+02
405             	3.75090321e+02
406             	3.75139693e+02
407             	3.75190933e+02
408             	3.75244801e+02
409             	3.75303343e+02
410             	3.75364464e+02
411             	3.75422504e+02
412             	3.75477812e+02
413             	3.75530012e+02
414             	3.75583990e+02
415             	3.75636773e+02
416             	3.75688843e+02
417             	3.75737862e+02
418             	3.75775563e+02
419             	3.75815839e+02
420             	3.75854095e+02
421             	3.75894662e+02
422             	3.75934665e+02
423             	3.75971977e+02
424             	3.76004624e+02
425             	3.76037087e+02
426             	3.76071490e+02
427             	3.76107983e+02
428             	3.76140937e+02
429             	3.76170185e+02
430             	3.76191947e+02
431             	3.76219199e+02
432             	3.76237954e+02
433             	3.76263182e+02
434             	3.76283157e+02
435             	3.76302969e+02
436             	3.76325255e+02
437             	3.76350134e+02
438             	3.76376142e+02
439             	3.76397970e+02
440             	3.76425889e+02
441             	3.76457209e+02
442             	3.76490335e+02
443             	3.76527650e+02
444             	3.76571175e+02
445             	3.76613577e+02
446             	3.76651008e+02
447             	3.76690497e+02
448             	3.76733694e+02
449             	3.76779072e+02
450             	3.76821192e+02
451             	3.76861927e+02
452             	3.76900612e+02
453             	3.76938184e+02
454             	3.76973817e+02
455             	3.77008174e+02
456             	3.77042384e+02
457             	3.77077656e+02
458             	3.77111832e+02
459             	3.77144421e+02
460             	3.77176690e+02
461             	3.77208910e+02
462             	3.77240085e+02
463             	3.77272215e+02
464             	3.77303602e+02
465             	3.77334503e+02
466             	3.77365197e+02
467             	3.77394885e+02
468             	3.77423315e+02
469             	3.77449183e+02
470             	3.77479912e+02
471             	3.77513959e+02
472             	3.77547995e+02
473             	3.77579754e+02
474             	3.77610731e+02
475             	3.77642236e+02
476             	3.77670024e+02
477             	3.77696972e+02
478             	3.77723519e+02
479             	3.77750126e+02
480             	3.77774858e+02
481             	3.77799862e+02
482             	3.77824181e+02
483             	3.77849263e+02
484             	3.77875064e+02
485             	3.77900437e+02
486             	3.77923997e+02
487             	3.77944646e+02
488             	3.77965021e+02
489             	3.77985543e+02
490             	3.78007042e+02
491             	3.78029378e+02
492             	3.78052369e+02
493             	3.78076457e+02
494             	3.78102384e+02
495             	3.78130328e+02
496             	3.78158858e+02
497             	3.78186882e+02
498             	3.78209750e+02
499             	3.78232637e+02
500             	3.78253546e+02
501             	3.78276203e+02
502             	3.78296725e+02
503             	3.78317539e+02
504             	3.78338277e+02
505             	3.78355987e+02
506             	3.78373074e+02
507             	3.78391251e+02
508             	3.78405710e+02
509             	3.78420102e+02
510             	3.78439194e+02
511             	3.78459521e+02
512             	3.78476632e+02
513             	3.78496312e+02
514             	3.78516286e+02
515             	3.78537753e+02
516             	3.78556676e+02
517             	3.78574775e+02
518             	3.78589711e+02
519             	3.78606474e+02
520             	3.78619874e+02
521             	3.78630731e+02
522             	3.78643406e+02
523             	3.78658758e+02
524             	3.78669583e+02
525             	3.78686160e+02
526             	3.78702925e+02
527             	3.78720033e+02
528             	3.78739476e+02
529             	3.78759400e+02
530             	3.78777302e+02
531             	3.78792095e+02
532             	3.78809807e+02
533             	3.78820023e+02
534             	3.78827587e+02
535             	3.78838532e+02
536             	3.78845422e+02
537             	3.78851526e+02
538             	3.78859086e+02
539             	3.78869205e+02
540             	3.78879628e+02
541             	3.78890546e+02
542             	3.78901330e+02
543             	3.78913850e+02
544             	3.78924052e+02
545             	3.78935884e+02
546             	3.78948123e+02
547             	3.78960897e+02
548             	3.78973805e+02
549             	3.78984858e+02
550             	3.78998125e+02
551             	3.79011914e+02
552             	3.79025384e+02
553             	3.79038577e+02
554             	3.79051105e+02
555             	3.79061862e+02
556             	3.79075922e+02
557             	3.79090804e+02
558             	3.79104372e+02
559             	3.79116352e+02
560             	3.79126986e+02
561             	3.79136460e+02
562             	3.79144781e+02
563             	3.79152717e+02
564             	3.79160815e+02
565             	3.79168441e+02
566             	3.79176638e+02
567             	3.79186505e+02
568             	3.79195549e+02
569             	3.79204611e+02
570             	3.79214342e+02
571             	3.79219835e+02
572             	3.79224176e+02
573             	3.79228700e+02
574             	3.79234321e+02
575             	3.79239258e+02
576             	3.79245233e+02
577             	3.79250481e+02
578             	3.79256442e+02
579             	3.79263794e+02
580             	3.79272024e+02
581             	3.79281046e+02
582             	3.79290248e+02
583             	3.79299339e+02
584             	3.79306743e+02
585             	3.79313399e+02
586             	3.79319653e+02
587             	3.79325540e+02
588             	3.79330600e+02
589             	3.79335052e+02
590             	3.79339394e+02
591             	3.79343746e+02
592             	3.79347797e+02
593             	3.79352371e+02
594             	3.79358290e+02
595             	3.79364098e+02
596             	3.79369539e+02
597             	3.79375200e+02
598             	3.79379167e+02
599             	3.79382864e+02
600             	3.79386597e+02
601             	3.79390331e+02
602             	3.79393967e+02
603             	3.79397738e+02
604             	3.79401770e+02
605             	3.79406231e+02
606             	3.79410794e+02
607             	3.79414939e+02
608             	3.79419669e+02
609             	3.79424624e+02
610             	3.79429612e+02
611             	3.79434728e+02
612             	3.79439129e+02
613             	3.79445184e+02
614             	3.79451324e+02
615             	3.79457229e+02
616             	3.79462633e+02
617             	3.79467708e+02
618             	3.79472335e+02
619             	3.79477860e+02
620             	3.79482792e+02
621             	3.79486770e+02
622             	3.79489911e+02
623             	3.79492164e+02
624             	3.79495622e+02
625             	3.79496869e+02
626             	3.79498514e+02
627             	3.79499852e+02
628             	3.79500862e+02
629             	3.79502272e+02
630             	3.79503878e+02
631             	3.79505265e+02
632             	3.79506660e+02
633             	3.79507546e+02
634             	3.79511050e+02
635             	3.79515264e+02
636             	3.79517755e+02
637             	3.79523242e+02
638             	3.79528616e+02
639             	3.79532802e+02
640             	3.79535818e+02
641             	3.79538235e+02
642             	3.79540167e+02
643             	3.79541792e+02
644             	3.79543010e+02
645             	3.79544014e+02
646             	3.79545080e+02
647             	3.79546494e+02
648             	3.79550297e+02
649             	3.79550362e+02
650             	3.79550243e+02
651             	3.79550968e+02
652             	3.79551350e+02
653             	3.79553691e+02
654             	3.79555825e+02
655             	3.79557925e+02
656             	3.79559288e+02
657             	3.79560073e+02
658             	3.79561819e+02
659             	3.79563072e+02
660             	3.79563164e+02
661             	3.79564135e+02
662             	3.79565149e+02
663             	3.79566204e+02
664             	3.79567223e+02
665             	3.79568120e+02
666             	3.79568974e+02
667             	3.79570135e+02
668             	3.79571653e+02
669             	3.79573682e+02
670             	3.79576288e+02
671             	3.79580597e+02
672             	3.79581870e+02
673             	3.79582500e+02
674             	3.79584998e+02
675             	3.79585032e+02
676             	3.79584654e+02
677             	3.79584708e+02
678             	3.79585095e+02
679             	3.79585584e+02
680             	3.79586480e+02
681             	3.79586942e+02
682             	3.79586510e+02
683             	3.79587126e+02
684             	3.79586061e+02
685             	3.79588450e+02
686             	3.79589600e+02
687             	3.79589150e+02
688             	3.79589928e+02
689             	3.79587899e+02
690             	3.79585555e+02
691             	3.79584485e+02
692             	3.79585041e+02
693             	3.79585153e+02
694             	3.79585644e+02
695             	3.79586132e+02
696             	3.79587455e+02
697             	3.79590141e+02
698             	3.79592709e+02
699             	3.79595910e+02
700             	3.79597391e+02
701             	3.79598604e+02
702             	3.79600743e+02
703             	3.79602466e+02
704             	3.79604168e+02
705             	3.79605312e+02
706             	3.79607299e+02
707             	3.79609427e+02
708             	3.79611361e+02
709             	3.79613210e+02
710             	3.79615134e+02
711             	3.79616975e+02
712             	3.79618173e+02
713             	3.79619907e+02
714             	3.79621419e+02
715             	3.79622533e+02
716             	3.79623309e+02
717             	3.79623254e+02
718             	3.79623115e+02
719             	3.79623152e+02
720             	3.79623492e+02
721             	3.79624155e+02
722             	3.79624950e+02
723             	3.79625973e+02
724             	3.79626652e+02
725             	3.79627411e+02
726             	3.79628281e+02
727             	3.79629347e+02
728             	3.79631092e+02
729             	3.79633122e+02
730             	3.79635107e+02
731             	3.79636560e+02
732             	3.79637858e+02
733             	3.79640399e+02
734             	3.79643124e+02
735             	3.79645093e+02
736             	3.79646664e+02
737             	3.79647892e+02
738             	3.79649241e+02
739             	3.79650330e+02
740             	3.79651275e+02
741             	3.79652298e+02
742             	3.79653261e+02
743             	3.79653996e+02
744             	3.79654602e+02
745             	3.79654879e+02
746             	3.79655086e+02
747             	3.79655201e+02
748             	3.79655338e+02
749             	3.79655426e+02
750             	3.79655773e+02
751             	3.79656141e+02
752             	3.79656594e+02
753             	3.79657060e+02
754             	3.79657793e+02
755             	3.79658141e+02
756             	3.79659005e+02
757             	3.79659341e+02
758             	3.79659746e+02
759             	3.79660576e+02
760             	3.79661372e+02
761             	3.79662260e+02
762             	3.79663298e+02
763             	3.79664551e+02
764             	3.79665905e+02
765             	3.79667148e+02
766             	3.79668343e+02
767             	3.79669425e+02
768             	3.79670474e+02
769             	3.79671379e+02
770             	3.79672194e+02
771             	3.79672866e+02
772             	3.79673525e+02
773             	3.79674093e+02
774             	3.79674695e+02
775             	3.79674888e+02
776             	3.79675656e+02
777             	3.79676448e+02
778             	3.79677263e+02
779             	3.79677923e+02
780             	3.79678640e+02
781             	3.79679094e+02
782             	3.79679604e+02
783             	3.79680172e+02
784             	3.79680848e+02
785             	3.79681497e+02
786             	3.79682150e+02
787             	3.79682794e+02
788             	3.79683785e+02
789             	3.79684787e+02
790             	3.79685770e+02
791             	3.79686655e+02
792             	3.79687534e+02
793             	3.79688349e+02
794             	3.79689178e+02
795             	3.79689894e+02
796             	3.79690724e+02
797             	3.79691519e+02
798             	3.79692387e+02
799             	3.79693240e+02
800             	3.79694095e+02
801             	3.79694876e+02
802             	3.79695607e+02
803             	3.79696209e+02
804             	3.79696843e+02
805             	3.79697378e+02
806             	3.79697938e+02
807             	3.79698430e+02
808             	3.79699040e+02
809             	3.79699440e+02
810             	3.79699866e+02
811             	3.79700242e+02
812             	3.79700784e+02
813             	3.79701056e+02
814             	3.79701508e+02
815             	3.79701700e+02
816             	3.79701958e+02
817             	3.79702342e+02
818             	3.79702844e+02
819             	3.79703354e+02
820             	3.79703911e+02
821             	3.79704413e+02
822             	3.79704956e+02
823             	3.79705557e+02
824             	3.79706146e+02
825             	3.79706635e+02
826             	3.79707112e+02
827             	3.79707546e+02
828             	3.79707995e+02
829             	3.79708402e+02
830             	3.79708762e+02
831             	3.79709046e+02
832             	3.79709399e+02
833             	3.79709682e+02
834             	3.79709842e+02
835             	3.79710143e+02
836             	3.79710545e+02
837             	3.79710855e+02
838             	3.79711192e+02
839             	3.79711445e+02
840             	3.79711652e+02
841             	3.79711753e+02
842             	3.79711912e+02
843             	3.79712073e+02
844             	3.79712344e+02
845             	3.79712646e+02
846             	3.79713002e+02
847             	3.79713344e+02
848             	3.79713817e+02
849             	3.79714286e+02
850             	3.79714761e+02
851             	3.79715176e+02
852             	3.79715611e+02
853             	3.79715946e+02
854             	3.79716292e+02
855             	3.79716558e+02
856             	3.79716816e+02
857             	3.79717027e+02
858             	3.79717214e+02
859             	3.79717462e+02
860             	3.79717759e+02
861             	3.79717981e+02
862             	3.79718232e+02
863             	3.79718455e+02
864             	3.79718724e+02
865             	3.79718939e+02
866             	3.79719186e+02
867             	3.79719378e+02
868             	3.79719614e+02
869             	3.79719770e+02
870             	3.79719958e+02
871             	3.79720159e+02
872             	3.79720263e+02
873             	3.79720375e+02
874             	3.79720453e+02
875             	3.79720499e+02
876             	3.79720630e+02
877             	3.79720773e+02
878             	3.79720989e+02
879             	3.79721164e+02
880             	3.79721365e+02
881             	3.79721524e+02
882             	3.79721721e+02
883             	3.79721903e+02
884             	3.79722141e+02
885             	3.79722322e+02
886             	3.79722506e+02
887             	3.79722623e+02
888             	3.79722762e+02
889             	3.79722885e+02
890             	3.79723084e+02
891             	3.79723242e+02
892             	3.79723510e+02
893             	3.79723775e+02
894             	3.79724055e+02
895             	3.79724267e+02
896             	3.79724469e+02
897             	3.79724669e+02
898             	3.79724900e+02
899             	3.79725062e+02
900             	3.79725248e+02
901             	3.79725409e+02
902             	3.79725594e+02
903             	3.79725719e+02
904             	3.79725875e+02
905             	3.79726014e+02
906             	3.79726171e+02
907             	3.79726313e+02
908             	3.79726513e+02
909             	3.79726661e+02
910             	3.79726830e+02
911             	3.79726969e+02
912             	3.79727192e+02
913             	3.79727380e+02
914             	3.79727600e+02
915             	3.79727751e+02
916             	3.79727917e+02
917             	3.79728075e+02
918             	3.79728202e+02
919             	3.79728289e+02
920             	3.79728458e+02
921             	3.79728600e+02
922             	3.79728759e+02
923             	3.79728869e+02
924             	3.79729005e+02
925             	3.79729088e+02
926             	3.79729204e+02
927             	3.79729270e+02
928             	3.79729372e+02
929             	3.79729360e+02
930             	3.79729390e+02
931             	3.79729417e+02
932             	3.79729528e+02
933             	3.79729615e+02