# Region        : cellZone pcb
# Cells         : 610
# Volume        : 1.16904626e+00
# Time          	volAverage(T)
1               	3.00004887e+02
2               	3.00014232e+02
3               	3.00027294e+02
4               	3.00043774e+02
5               	3.00062989e+02
6               	3.00085089e+02
7               	3.00109810e+02
8               	3.00137153e+02
9               	3.00166894e+02
10              	3.00199402e+02
11              	3.00234298e+02
12              	3.00271354e+02
13              	3.00310462e+02
14              	3.00351280e+02
15              	3.00393756e+02
16              	3.00437837e+02
17              	3.00483202e+02
18              	3.00529659e+02
19              	3.00577422e+02
20              	3.00626117e+02
21              	3.00675635e+02
22              	3.00726359e+02
23              	3.00777779e+02
24              	3.00830342e+02
25              	3.00883716e+02
26              	3.00938284e+02
27              	3.00993183e+02
28              	3.01049313e+02
29              	3.01107114e+02
30              	3.01165461e+02
31              	3.01224518e+02
32              	3.01283312e+02
33              	3.01342778e+02
34              	3.01402037e+02
35              	3.01461185e+02
36              	3.01520196e+02
37              	3.01579830e+02
38              	3.01639386e+02
39              	3.01699949e+02
40              	3.01761541e+02
41              	3.01822616e+02
42              	3.01883420e+02
43              	3.01944595e+02
44              	3.02005806e+02
45              	3.02066501e+02
46              	3.02127448e+02
47              	3.02188759e+02
48              	3.02249526e+02
49              	3.02310860e+02
50              	3.02372741e+02
51              	3.02434454e+02
52              	3.02496031e+02
53              	3.02556966e+02
54              	3.02617663e+02
55              	3.02678141e+02
56              	3.02738739e+02
57              	3.02799335e+02
58              	3.02859626e+02
59              	3.02917952e+02
60              	3.02977019e+02
61              	3.03036353e+02
62              	3.03095832e+02
63              	3.03154235e+02
64              	3.03211477e+02
65              	3.03269041e+02
66              	3.03328042e+02
67              	3.03385973e+02
68              	3.03443448e+02
69              	3.03500081e+02
70              	3.03556623e+02
71              	3.03612467e+02
72              	3.03667514e+02
73              	3.03721848e+02
74              	3.03776524e+02
75              	3.03829293e+02
76              	3.03883282e+02
77              	3.03936380e+02
78              	3.03990076e+02
79              	3.04043277e+02
80              	3.04096878e+02
81              	3.04152329e+02
82              	3.04207412e+02
83              	3.04260730e+02
84              	3.04312494e+02
85              	3.04364053e+02
86              	3.04414350e+02
87              	3.04463890e+02
88              	3.04512866e+02
89              	3.04560158e+02
90              	3.04607358e+02
91              	3.04654900e+02
92              	3.04702660e+02
93              	3.04750313e+02
94              	3.04798384e+02
95              	3.04846787e+02
96              	3.04895384e+02
97              	3.04943514e+02
98              	3.04990711e+02
99              	3.05038368e+02
100             	3.05085728e+02
101             	3.05132907e+02
102             	3.05179821e+02
103             	3.05226221e+02
104             	3.05272070e+02
105             	3.05317348e+02
106             	3.05362926e+02
107             	3.05406354e+02
108             	3.05448760e+02
109             	3.05490570e+02
110             	3.05532449e+02
111             	3.05574218e+02
112             	3.05615999e+02
113             	3.05657911e+02
114             	3.05699889e+02
115             	3.05741864e+02
116             	3.05783638e+02
117             	3.05825440e+02
118             	3.05867258e+02
119             	3.05909278e+02
120             	3.05950326e+02
121             	3.05990978e+02
122             	3.06030681e+02
123             	3.06069851e+02
124             	3.06108117e+02
125             	3.06145701e+02
126             	3.06182927e+02
127             	3.06219878e+02
128             	3.06256341e+02
129             	3.06292443e+02
130             	3.06328466e+02
131             	3.06364090e+02
132             	3.06399365e+02
133             	3.06434401e+02
134             	3.06469395e+02
135             	3.06504148e+02
136             	3.06538591e+02
137             	3.06572861e+02
138             	3.06607105e+02
139             	3.06641270e+02
140             	3.06675240e+02
141             	3.06709268e+02
142             	3.06743238e+02
143             	3.06777061e+02
144             	3.06810650e+02
145             	3.06843959e+02
146             	3.06876935e+02
147             	3.06909664e+02
148             	3.06942274e+02
149             	3.06974676e+02
150             	3.07006511e+02
151             	3.07037950e+02
152             	3.07068380e+02
153             	3.07098347e+02
154             	3.07128094e+02
155             	3.07157494e+02
156             	3.07186586e+02
157             	3.07215662e+02
158             	3.07245006e+02
159             	3.07274071e+02
160             	3.07302870e+02
161             	3.07331816e+02
162             	3.07360174e+02
163             	3.07387984e+02
164             	3.07415543e+02
165             	3.07443204e+02
166             	3.07471037e+02
167             	3.07499055e+02
168             	3.07526868e+02
169             	3.07554732e+02
170             	3.07582203e+02
171             	3.07609307e+02
172             	3.07635828e+02
173             	3.07661797e+02
174             	3.07687117e+02
175             	3.07711720e+02
176             	3.07735993e+02
177             	3.07759800e+02
178             	3.07783448e+02
179             	3.07806973e+02
180             	3.07830346e+02
181             	3.07853646e+02
182             	3.07876912e+02
183             	3.07900040e+02
184             	3.07922973e+02
185             	3.07945713e+02
186             	3.07968401e+02
187             	3.07991093e+02
188             	3.08013899e+02
189             	3.08036369e+02
190             	3.08058893e+02
191             	3.08081532e+02
192             	3.08104106e+02
193             	3.08126621e+02
194             	3.08148607e+02
195             	3.08169996e+02
196             	3.08190612e+02
197             	3.08211041e+02
198             	3.08230896e+02
199             	3.08250572e+02
200             	3.08269801e+02
201             	3.08288779e+02
202             	3.08307495e+02
203             	3.08326031e+02
204             	3.08344480e+02
205             	3.08362778e+02
206             	3.08381294e+02
207             	3.08399859e+02
208             	3.08418264e+02
209             	3.08436729e+02
210             	3.08454881e+02
211             	3.08472734e+02
212             	3.08490522e+02
213             	3.08508192e+02
214             	3.08525627e+02
215             	3.08542817e+02
216             	3.08559697e+02
217             	3.08577044e+02
218             	3.08593635e+02
219             	3.08609991e+02
220             	3.08626183e+02
221             	3.08642196e+02
222             	3.08658092e+02
223             	3.08673826e+02
224             	3.08689532e+02
225             	3.08705516e+02
226             	3.08721962e+02
227             	3.08738451e+02
228             	3.08754628e+02
229             	3.08770567e+02
230             	3.08785848e+02
231             	3.08801173e+02
232             	3.08815579e+02
233             	3.08829556e+02
234             	3.08843326e+02
235             	3.08857003e+02
236             	3.08870655e+02
237             	3.08884341e+02
238             	3.08897989e+02
239             	3.08911915e+02
240             	3.08925956e+02
241             	3.08939876e+02
242             	3.08953675e+02
243             	3.08967046e+02
244             	3.08980143e+02
245             	3.08993305e+02
246             	3.09006254e+02
247             	3.09019099e+02
248             	3.09031813e+02
249             	3.09044421e+02
250             	3.09056882e+02
251             	3.09069375e+02
252             	3.09081320e+02
253             	3.09093143e+02
254             	3.09104817e+02
255             	3.09116373e+02
256             	3.09127779e+02
257             	3.09139294e+02
258             	3.09150775e+02
259             	3.09162419e+02
260             	3.09174032e+02
261             	3.09185579e+02
262             	3.09197040e+02
263             	3.09208368e+02
264             	3.09219328e+02
265             	3.09230023e+02
266             	3.09240515e+02
267             	3.09250830e+02
268             	3.09260850e+02
269             	3.09270657e+02
270             	3.09280373e+02
271             	3.09289980e+02
272             	3.09299483e+02
273             	3.09308950e+02
274             	3.09318390e+02
275             	3.09327724e+02
276             	3.09337155e+02
277             	3.09346480e+02
278             	3.09355779e+02
279             	3.09365173e+02
280             	3.09374485e+02
281             	3.09384004e+02
282             	3.09393350e+02
283             	3.09402641e+02
284             	3.09411841e+02
285             	3.09421048e+02
286             	3.09430118e+02
287             	3.09439011e+02
288             	3.09447719e+02
289             	3.09456399e+02
290             	3.09464868e+02
291             	3.09473215e+02
292             	3.09481449e+02
293             	3.09489559e+02
294             	3.09497530e+02
295             	3.09505353e+02
296             	3.09513013e+02
297             	3.09520454e+02
298             	3.09527794e+02
299             	3.09535091e+02
300             	3.09542335e+02
301             	3.09549502e+02
302             	3.09556587e+02
303             	3.09563724e+02
304             	3.09570775e+02
305             	3.09577803e+02
306             	3.09584897e+02
307             	3.09591951e+02
308             	3.09598985e+02
309             	3.09606064e+02
310             	3.09613076e+02
311             	3.09620035e+02
312             	3.09626982e+02
313             	3.09633813e+02
314             	3.09640589e+02
315             	3.09647355e+02
316             	3.09654141e+02
317             	3.09660787e+02
318             	3.09667378e+02
319             	3.09673931e+02
320             	3.09680370e+02
321             	3.09686727e+02
322             	3.09692995e+02
323             	3.09699174e+02
324             	3.09705175e+02
325             	3.09711077e+02
326             	3.09716921e+02
327             	3.09722713e+02
328             	3.09728441e+02
329             	3.09734102e+02
330             	3.09739686e+02
331             	3.09745200e+02
332             	3.09750647e+02
333             	3.09756071e+02
334             	3.09761428e+02
335             	3.09766767e+02
336             	3.09772089e+02
337             	3.09777304e+02
338             	3.09782525e+02
339             	3.09787720e+02
340             	3.09792941e+02
341             	3.09798146e+02
342             	3.09803337e+02
343             	3.09808437e+02
344             	3.09813467e+02
345             	3.09818467e+02
346             	3.09823383e+02
347             	3.09828235e+02
348             	3.09832981e+02
349             	3.09837671e+02
350             	3.09842344e+02
351             	3.09846971e+02
352             	3.09851585e+02
353             	3.09856140e+02
354             	3.09860632e+02
355             	3.09865114e+02
356             	3.09869627e+02
357             	3.09874070e+02
358             	3.09878460e+02
359             	3.09882828e+02
360             	3.09887237e+02
361             	3.09891580e+02
362             	3.09895863e+02
363             	3.09900112e+02
364             	3.09904317e+02
365             	3.09908481e+02
366             	3.09912559e+02
367             	3.09916582e+02
368             	3.09920577e+02
369             	3.09924532e+02
370             	3.09928407e+02
371             	3.09932175e+02
372             	3.09935903e+02
373             	3.09939571e+02
374             	3.09943248e+02
375             	3.09946878e+02
376             	3.09950461e+02
377             	3.09954018e+02
378             	3.09957565e+02
379             	3.09961161e+02
380             	3.09964706e+02
381             	3.09968243e+02
382             	3.09971785e+02
383             	3.09975284e+02
384             	3.09978760e+02
385             	3.09982222e+02
386             	3.09985668e+02
387             	3.09989028e+02
388             	3.09992314e+02
389             	3.09995528e+02
390             	3.09998679e+02
391             	3.10001825e+02
392             	3.10004908e+02
393             	3.10007940e+02
394             	3.10010921e+02
395             	3.10013919e+02
396             	3.10016850e+02
397             	3.10019765e+02
398             	3.10022641e+02
399             	3.10025529e+02
400             	3.10028362e+02
401             	3.10031191e+02
402             	3.10034013e+02
403             	3.10036866e+02
404             	3.10039677e+02
405             	3.10042489e+02
406             	3.10045294e+02
407             	3.10048108e+02
408             	3.10050855e+02
409             	3.10053583e+02
410             	3.10056289e+02
411             	3.10059004e+02
412             	3.10061654e+02
413             	3.10064282e+02
414             	3.10066872e+02
415             	3.10069451e+02
416             	3.10071957e+02
417             	3.10074441e+02
418             	3.10076884e+02
419             	3.10079320e+02
420             	3.10081676e+02
421             	3.10084019e+02
422             	3.10086319e+02
423             	3.10088614e+02
424             	3.10090842e+02
425             	3.10093063e+02
426             	3.10095251e+02
427             	3.10097436e+02
428             	3.10099566e+02
429             	3.10101681e+02
430             	3.10103772e+02
431             	3.10105869e+02
432             	3.10107917e+02
433             	3.10109987e+02
434             	3.10112028e+02
435             	3.10114066e+02
436             	3.10116052e+02
437             	3.10118044e+02
438             	3.10120022e+02
439             	3.10122006e+02
440             	3.10123957e+02
441             	3.10125918e+02
442             	3.10127874e+02
443             	3.10129813e+02
444             	3.10131723e+02
445             	3.10133635e+02
446             	3.10135526e+02
447             	3.10137410e+02
448             	3.10139230e+02
449             	3.10141041e+02
450             	3.10142814e+02
451             	3.10144571e+02
452             	3.10146283e+02
453             	3.10147983e+02
454             	3.10149662e+02
455             	3.10151342e+02
456             	3.10152974e+02
457             	3.10154616e+02
458             	3.10156245e+02
459             	3.10157879e+02
460             	3.10159469e+02
461             	3.10161068e+02
462             	3.10162651e+02
463             	3.10164229e+02
464             	3.10165777e+02
465             	3.10167333e+02
466             	3.10168875e+02
467             	3.10170407e+02
468             	3.10171889e+02
469             	3.10173377e+02
470             	3.10174842e+02
471             	3.10176293e+02
472             	3.10177691e+02
473             	3.10179086e+02
474             	3.10180453e+02
475             	3.10181814e+02
476             	3.10183129e+02
477             	3.10184457e+02
478             	3.10185769e+02
479             	3.10187079e+02
480             	3.10188353e+02
481             	3.10189641e+02
482             	3.10190915e+02
483             	3.10192189e+02
484             	3.10193426e+02
485             	3.10194677e+02
486             	3.10195919e+02
487             	3.10197161e+02
488             	3.10198372e+02
489             	3.10199595e+02
490             	3.10200809e+02
491             	3.10202018e+02
492             	3.10203198e+02
493             	3.10204376e+02
494             	3.10205538e+02
495             	3.10206691e+02
496             	3.10207805e+02
497             	3.10208921e+02
498             	3.10210018e+02
499             	3.10211110e+02
500             	3.10212167e+02
501             	3.10213221e+02
502             	3.10214258e+02
503             	3.10215290e+02
504             	3.10216293e+02
505             	3.10217304e+02
506             	3.10218303e+02
507             	3.10219299e+02
508             	3.10220267e+02
509             	3.10221245e+02
510             	3.10222213e+02
511             	3.10223178e+02
512             	3.10224118e+02
513             	3.10225067e+02
514             	3.10226006e+02
515             	3.10226943e+02
516             	3.10227856e+02
517             	3.10228776e+02
518             	3.10229684e+02
519             	3.10230587e+02
520             	3.10231466e+02
521             	3.10232351e+02
522             	3.10233224e+02
523             	3.10234091e+02
524             	3.10234936e+02
525             	3.10235784e+02
526             	3.10236622e+02
527             	3.10237453e+02
528             	3.10238262e+02
529             	3.10239073e+02
530             	3.10239871e+02
531             	3.10240663e+02
532             	3.10241431e+02
533             	3.10242203e+02
534             	3.10242964e+02
535             	3.10243719e+02
536             	3.10244456e+02
537             	3.10245197e+02
538             	3.10245929e+02
539             	3.10246657e+02
540             	3.10247367e+02
541             	3.10248081e+02
542             	3.10248785e+02
543             	3.10249485e+02
544             	3.10250168e+02
545             	3.10250854e+02
546             	3.10251532e+02
547             	3.10252207e+02
548             	3.10252868e+02
549             	3.10253533e+02
550             	3.10254191e+02
551             	3.10254846e+02
552             	3.10255485e+02
553             	3.10256127e+02
554             	3.10256759e+02
555             	3.10257387e+02
556             	3.10258000e+02
557             	3.10258614e+02
558             	3.10259220e+02
559             	3.10259821e+02
560             	3.10260408e+02
561             	3.10260997e+02
562             	3.10261577e+02
563             	3.10262152e+02
564             	3.10262714e+02
565             	3.10263276e+02
566             	3.10263830e+02
567             	3.10264379e+02
568             	3.10264916e+02
569             	3.10265453e+02
570             	3.10265983e+02
571             	3.10266508e+02
572             	3.10267025e+02
573             	3.10267542e+02
574             	3.10268052e+02
575             	3.10268559e+02
576             	3.10269057e+02
577             	3.10269555e+02
578             	3.10270049e+02
579             	3.10270539e+02
580             	3.10271021e+02
581             	3.10271504e+02
582             	3.10271980e+02
583             	3.10272453e+02
584             	3.10272917e+02
585             	3.10273380e+02
586             	3.10273837e+02
587             	3.10274291e+02
588             	3.10274736e+02
589             	3.10275179e+02
590             	3.10275614e+02
591             	3.10276046e+02
592             	3.10276470e+02
593             	3.10276894e+02
594             	3.10277313e+02
595             	3.10277730e+02
596             	3.10278141e+02
597             	3.10278552e+02
598             	3.10278957e+02
599             	3.10279360e+02
600             	3.10279756e+02
601             	3.10280150e+02
602             	3.10280540e+02
603             	3.10280927e+02
604             	3.10281305e+02
605             	3.10281682e+02
606             	3.10282054e+02
607             	3.10282423e+02
608             	3.10282785e+02
609             	3.10283146e+02
610             	3.10283503e+02
611             	3.10283859e+02
612             	3.10284208e+02
613             	3.10284558e+02
614             	3.10284903e+02
615             	3.10285246e+02
616             	3.10285582e+02
617             	3.10285918e+02
618             	3.10286249e+02
619             	3.10286578e+02
620             	3.10286902e+02
621             	3.10287224e+02
622             	3.10287543e+02
623             	3.10287859e+02
624             	3.10288169e+02
625             	3.10288478e+02
626             	3.10288784e+02
627             	3.10289086e+02
628             	3.10289383e+02
629             	3.10289678e+02
630             	3.10289970e+02
631             	3.10290260e+02
632             	3.10290545e+02
633             	3.10290828e+02
634             	3.10291109e+02
635             	3.10291387e+02
636             	3.10291661e+02
637             	3.10291935e+02
638             	3.10292205e+02
639             	3.10292475e+02
640             	3.10292740e+02
641             	3.10293005e+02
642             	3.10293266e+02
643             	3.10293526e+02
644             	3.10293782e+02
645             	3.10294037e+02
646             	3.10294288e+02
647             	3.10294537e+02
648             	3.10294782e+02
649             	3.10295026e+02
650             	3.10295266e+02
651             	3.10295504e+02
652             	3.10295738e+02
653             	3.10295971e+02
654             	3.10296200e+02
655             	3.10296428e+02
656             	3.10296652e+02
657             	3.10296874e+02
658             	3.10297094e+02
659             	3.10297312e+02
660             	3.10297527e+02
661             	3.10297741e+02
662             	3.10297952e+02
663             	3.10298163e+02
664             	3.10298370e+02
665             	3.10298577e+02
666             	3.10298781e+02
667             	3.10298984e+02
668             	3.10299185e+02
669             	3.10299385e+02
670             	3.10299584e+02
671             	3.10299780e+02
672             	3.10299974e+02
673             	3.10300167e+02
674             	3.10300358e+02
675             	3.10300547e+02
676             	3.10300733e+02
677             	3.10300918e+02
678             	3.10301101e+02
679             	3.10301282e+02
680             	3.10301460e+02
681             	3.10301637e+02
682             	3.10301811e+02
683             	3.10301984e+02
684             	3.10302154e+02
685             	3.10302322e+02
686             	3.10302488e+02
687             	3.10302653e+02
688             	3.10302815e+02
689             	3.10302977e+02
690             	3.10303137e+02
691             	3.10303295e+02
692             	3.10303452e+02
693             	3.10303607e+02
694             	3.10303761e+02
695             	3.10303914e+02
696             	3.10304065e+02
697             	3.10304216e+02
698             	3.10304365e+02
699             	3.10304513e+02
700             	3.10304659e+02
701             	3.10304805e+02
702             	3.10304950e+02
703             	3.10305093e+02
704             	3.10305235e+02
705             	3.10305375e+02
706             	3.10305515e+02
707             	3.10305653e+02
708             	3.10305789e+02
709             	3.10305924e+02
710             	3.10306057e+02
711             	3.10306189e+02
712             	3.10306319e+02
713             	3.10306448e+02
714             	3.10306576e+02
715             	3.10306702e+02
716             	3.10306826e+02
717             	3.10306949e+02
718             	3.10307071e+02
719             	3.10307191e+02
720             	3.10307310e+02
721             	3.10307428e+02
722             	3.10307545e+02
723             	3.10307661e+02
724             	3.10307775e+02
725             	3.10307889e+02
726             	3.10308001e+02
727             	3.10308113e+02
728             	3.10308224e+02
729             	3.10308334e+02
730             	3.10308442e+02
731             	3.10308551e+02
732             	3.10308658e+02
733             	3.10308765e+02
734             	3.10308870e+02
735             	3.10308975e+02
736             	3.10309078e+02
737             	3.10309181e+02
738             	3.10309282e+02
739             	3.10309383e+02
740             	3.10309482e+02
741             	3.10309581e+02
742             	3.10309678e+02
743             	3.10309775e+02
744             	3.10309870e+02
745             	3.10309965e+02
746             	3.10310058e+02
747             	3.10310150e+02
748             	3.10310241e+02
749             	3.10310331e+02
750             	3.10310420e+02
751             	3.10310508e+02
752             	3.10310595e+02
753             	3.10310681e+02
754             	3.10310766e+02
755             	3.10310851e+02
756             	3.10310934e+02
757             	3.10311017e+02
758             	3.10311099e+02
759             	3.10311180e+02
760             	3.10311261e+02
761             	3.10311341e+02
762             	3.10311419e+02
763             	3.10311498e+02
764             	3.10311576e+02
765             	3.10311653e+02
766             	3.10311729e+02
767             	3.10311805e+02
768             	3.10311880e+02
769             	3.10311955e+02
770             	3.10312029e+02
771             	3.10312103e+02
772             	3.10312176e+02
773             	3.10312248e+02
774             	3.10312320e+02
775             	3.10312391e+02
776             	3.10312461e+02
777             	3.10312530e+02
778             	3.10312599e+02
779             	3.10312668e+02
780             	3.10312735e+02
781             	3.10312802e+02
782             	3.10312868e+02
783             	3.10312933e+02
784             	3.10312998e+02
785             	3.10313062e+02
786             	3.10313125e+02
787             	3.10313188e+02
788             	3.10313250e+02
789             	3.10313311e+02
790             	3.10313371e+02
791             	3.10313431e+02
792             	3.10313490e+02
793             	3.10313549e+02
794             	3.10313607e+02
795             	3.10313665e+02
796             	3.10313722e+02
797             	3.10313778e+02
798             	3.10313834e+02
799             	3.10313889e+02
800             	3.10313944e+02
801             	3.10313998e+02
802             	3.10314052e+02
803             	3.10314105e+02
804             	3.10314158e+02
805             	3.10314211e+02
806             	3.10314263e+02
807             	3.10314315e+02
808             	3.10314366e+02
809             	3.10314417e+02
810             	3.10314467e+02
811             	3.10314517e+02
812             	3.10314567e+02
813             	3.10314616e+02
814             	3.10314665e+02
815             	3.10314713e+02
816             	3.10314761e+02
817             	3.10314808e+02
818             	3.10314855e+02
819             	3.10314902e+02
820             	3.10314948e+02
821             	3.10314994e+02
822             	3.10315039e+02
823             	3.10315085e+02
824             	3.10315129e+02
825             	3.10315173e+02
826             	3.10315217e+02
827             	3.10315261e+02
828             	3.10315304e+02
829             	3.10315347e+02
830             	3.10315389e+02
831             	3.10315431e+02
832             	3.10315472e+02
833             	3.10315513e+02
834             	3.10315553e+02
835             	3.10315593e+02
836             	3.10315633e+02
837             	3.10315672e+02
838             	3.10315711e+02
839             	3.10315750e+02
840             	3.10315788e+02
841             	3.10315826e+02
842             	3.10315864e+02
843             	3.10315901e+02
844             	3.10315938e+02
845             	3.10315974e+02
846             	3.10316010e+02
847             	3.10316046e+02
848             	3.10316081e+02
849             	3.10316116e+02
850             	3.10316151e+02
851             	3.10316185e+02
852             	3.10316219e+02
853             	3.10316252e+02
854             	3.10316285e+02
855             	3.10316318e+02
856             	3.10316351e+02
857             	3.10316383e+02
858             	3.10316415e+02
859             	3.10316446e+02
860             	3.10316478e+02
861             	3.10316509e+02
862             	3.10316539e+02
863             	3.10316570e+02
864             	3.10316600e+02
865             	3.10316631e+02
866             	3.10316661e+02
867             	3.10316690e+02
868             	3.10316720e+02
869             	3.10316749e+02
870             	3.10316778e+02
871             	3.10316807e+02
872             	3.10316836e+02
873             	3.10316865e+02
874             	3.10316893e+02
875             	3.10316921e+02
876             	3.10316948e+02
877             	3.10316976e+02
878             	3.10317003e+02
879             	3.10317029e+02
880             	3.10317056e+02
881             	3.10317082e+02
882             	3.10317108e+02
883             	3.10317133e+02
884             	3.10317158e+02
885             	3.10317183e+02
886             	3.10317208e+02
887             	3.10317232e+02
888             	3.10317256e+02
889             	3.10317280e+02
890             	3.10317303e+02
891             	3.10317327e+02
892             	3.10317350e+02
893             	3.10317373e+02
894             	3.10317396e+02
895             	3.10317418e+02
896             	3.10317441e+02
897             	3.10317463e+02
898             	3.10317484e+02
899             	3.10317506e+02
900             	3.10317528e+02
901             	3.10317549e+02
902             	3.10317570e+02
903             	3.10317591e+02
904             	3.10317611e+02
905             	3.10317632e+02
906             	3.10317652e+02
907             	3.10317672e+02
908             	3.10317692e+02
909             	3.10317712e+02
910             	3.10317731e+02
911             	3.10317751e+02
912             	3.10317770e+02
913             	3.10317789e+02
914             	3.10317808e+02
915             	3.10317827e+02
916             	3.10317845e+02
917             	3.10317863e+02
918             	3.10317882e+02
919             	3.10317900e+02
920             	3.10317918e+02
921             	3.10317935e+02
922             	3.10317953e+02
923             	3.10317970e+02
924             	3.10317987e+02
925             	3.10318004e+02
926             	3.10318021e+02
927             	3.10318038e+02
928             	3.10318054e+02
929             	3.10318070e+02
930             	3.10318086e+02
931             	3.10318102e+02
932             	3.10318118e+02
933             	3.10318134e+02