# Region        : cellZone component_0
# Cells         : 112
# Volume        : 2.15264497e-01
# Time          	volAverage(T)
1               	3.00683304e+02
2               	3.01354683e+02
3               	3.01952435e+02
4               	3.02499031e+02
5               	3.03018895e+02
6               	3.03520458e+02
7               	3.04006377e+02
8               	3.04478974e+02
9               	3.04942338e+02
10              	3.05401534e+02
11              	3.05847572e+02
12              	3.06277997e+02
13              	3.06691561e+02
14              	3.07101098e+02
15              	3.07497333e+02
16              	3.07883496e+02
17              	3.08262288e+02
18              	3.08638475e+02
19              	3.09006966e+02
20              	3.09368700e+02
21              	3.09722915e+02
22              	3.10068796e+02
23              	3.10408956e+02
24              	3.10741024e+02
25              	3.11063433e+02
26              	3.11379964e+02
27              	3.11694760e+02
28              	3.12008412e+02
29              	3.12308664e+02
30              	3.12603848e+02
31              	3.12890854e+02
32              	3.13162472e+02
33              	3.13416462e+02
34              	3.13658825e+02
35              	3.13903304e+02
36              	3.14143072e+02
37              	3.14377727e+02
38              	3.14606840e+02
39              	3.14832969e+02
40              	3.15055058e+02
41              	3.15269232e+02
42              	3.15491561e+02
43              	3.15703517e+02
44              	3.15883907e+02
45              	3.16067127e+02
46              	3.16248926e+02
47              	3.16435179e+02
48              	3.16618605e+02
49              	3.16799894e+02
50              	3.16984497e+02
51              	3.17159101e+02
52              	3.17340327e+02
53              	3.17520328e+02
54              	3.17696978e+02
55              	3.17856972e+02
56              	3.18016615e+02
57              	3.18167304e+02
58              	3.18309488e+02
59              	3.18459868e+02
60              	3.18606833e+02
61              	3.18754188e+02
62              	3.18894921e+02
63              	3.19034034e+02
64              	3.19168402e+02
65              	3.19300877e+02
66              	3.19441001e+02
67              	3.19574471e+02
68              	3.19705046e+02
69              	3.19839558e+02
70              	3.19971636e+02
71              	3.20102917e+02
72              	3.20223248e+02
73              	3.20337819e+02
74              	3.20446116e+02
75              	3.20553483e+02
76              	3.20650963e+02
77              	3.20761952e+02
78              	3.20870281e+02
79              	3.20981561e+02
80              	3.21093095e+02
81              	3.21200219e+02
82              	3.21305556e+02
83              	3.21403745e+02
84              	3.21495871e+02
85              	3.21581909e+02
86              	3.21669365e+02
87              	3.21754629e+02
88              	3.21821428e+02
89              	3.21905805e+02
90              	3.22003422e+02
91              	3.22087623e+02
92              	3.22161474e+02
93              	3.22240180e+02
94              	3.22318533e+02
95              	3.22390770e+02
96              	3.22460275e+02
97              	3.22522236e+02
98              	3.22590870e+02
99              	3.22658177e+02
100             	3.22724744e+02
101             	3.22772831e+02
102             	3.22829332e+02
103             	3.22895802e+02
104             	3.22958727e+02
105             	3.23020608e+02
106             	3.23081101e+02
107             	3.23135188e+02
108             	3.23189003e+02
109             	3.23240711e+02
110             	3.23290130e+02
111             	3.23333398e+02
112             	3.23389039e+02
113             	3.23439428e+02
114             	3.23493798e+02
115             	3.23536656e+02
116             	3.23595083e+02
117             	3.23658174e+02
118             	3.23713514e+02
119             	3.23762852e+02
120             	3.23808563e+02
121             	3.23851239e+02
122             	3.23895733e+02
123             	3.23939674e+02
124             	3.23982976e+02
125             	3.24030969e+02
126             	3.24078927e+02
127             	3.24127867e+02
128             	3.24179732e+02
129             	3.24230847e+02
130             	3.24277767e+02
131             	3.24322191e+02
132             	3.24362350e+02
133             	3.24399591e+02
134             	3.24438507e+02
135             	3.24477998e+02
136             	3.24513055e+02
137             	3.24558331e+02
138             	3.24608339e+02
139             	3.24633622e+02
140             	3.24665577e+02
141             	3.24701749e+02
142             	3.24737317e+02
143             	3.24768647e+02
144             	3.24797594e+02
145             	3.24823273e+02
146             	3.24852618e+02
147             	3.24882149e+02
148             	3.24919259e+02
149             	3.24960618e+02
150             	3.24998373e+02
151             	3.25029209e+02
152             	3.25060657e+02
153             	3.25089849e+02
154             	3.25118421e+02
155             	3.25147034e+02
156             	3.25176463e+02
157             	3.25206607e+02
158             	3.25238734e+02
159             	3.25272445e+02
160             	3.25306269e+02
161             	3.25342150e+02
162             	3.25378628e+02
163             	3.25416329e+02
164             	3.25452255e+02
165             	3.25482575e+02
166             	3.25510119e+02
167             	3.25536413e+02
168             	3.25561823e+02
169             	3.25586673e+02
170             	3.25611370e+02
171             	3.25635785e+02
172             	3.25659383e+02
173             	3.25683075e+02
174             	3.25707305e+02
175             	3.25731811e+02
176             	3.25756195e+02
177             	3.25781419e+02
178             	3.25804730e+02
179             	3.25827109e+02
180             	3.25849674e+02
181             	3.25871234e+02
182             	3.25891359e+02
183             	3.25910317e+02
184             	3.25927609e+02
185             	3.25944944e+02
186             	3.25961567e+02
187             	3.25978212e+02
188             	3.25995028e+02
189             	3.26012465e+02
190             	3.26029697e+02
191             	3.26046683e+02
192             	3.26063241e+02
193             	3.26080399e+02
194             	3.26099464e+02
195             	3.26117333e+02
196             	3.26134119e+02
197             	3.26151626e+02
198             	3.26170355e+02
199             	3.26189816e+02
200             	3.26206704e+02
201             	3.26221579e+02
202             	3.26235382e+02
203             	3.26248398e+02
204             	3.26261572e+02
205             	3.26276381e+02
206             	3.26291304e+02
207             	3.26303374e+02
208             	3.26314450e+02
209             	3.26326938e+02
210             	3.26340016e+02
211             	3.26352715e+02
212             	3.26366010e+02
213             	3.26379307e+02
214             	3.26389554e+02
215             	3.26398962e+02
216             	3.26408155e+02
217             	3.26415609e+02
218             	3.26424003e+02
219             	3.26432513e+02
220             	3.26441518e+02
221             	3.26450331e+02
222             	3.26458729e+02
223             	3.26466776e+02
224             	3.26474872e+02
225             	3.26483063e+02
226             	3.26489830e+02
227             	3.26496522e+02
228             	3.26503766e+02
229             	3.26511127e+02
230             	3.26519030e+02
231             	3.26527163e+02
232             	3.26535313e+02
233             	3.26543422e+02
234             	3.26551487e+02
235             	3.26559554e+02
236             	3.26567712e+02
237             	3.26576016e+02
238             	3.26584514e+02
239             	3.26593203e+02
240             	3.26602072e+02
241             	3.26610285e+02
242             	3.26618738e+02
243             	3.26627118e+02
244             	3.26635335e+02
245             	3.26642923e+02
246             	3.26650049e+02
247             	3.26656738e+02
248             	3.26662939e+02
249             	3.26668613e+02
250             	3.26673785e+02
251             	3.26678668e+02
252             	3.26683402e+02
253             	3.26687871e+02
254             	3.26692172e+02
255             	3.26698137e+02
256             	3.26702986e+02
257             	3.26708360e+02
258             	3.26713885e+02
259             	3.26719418e+02
260             	3.26725298e+02
261             	3.26730795e+02
262             	3.26736033e+02
263             	3.26741015e+02
264             	3.26745868e+02
265             	3.26749080e+02
266             	3.26752486e+02
267             	3.26755528e+02
268             	3.26758873e+02
269             	3.26761557e+02
270             	3.26764252e+02
271             	3.26767242e+02
272             	3.26770410e+02
273             	3.26773505e+02
274             	3.26776539e+02
275             	3.26779551e+02
276             	3.26782584e+02
277             	3.26786105e+02
278             	3.26790135e+02
279             	3.26793858e+02
280             	3.26797900e+02
281             	3.26801659e+02
282             	3.26804562e+02
283             	3.26806849e+02
284             	3.26808595e+02
285             	3.26811584e+02
286             	3.26813411e+02
287             	3.26815308e+02
288             	3.26817591e+02
289             	3.26819932e+02
290             	3.26822074e+02
291             	3.26824008e+02
292             	3.26825835e+02
293             	3.26827634e+02
294             	3.26829480e+02
295             	3.26831331e+02
296             	3.26833199e+02
297             	3.26835204e+02
298             	3.26837483e+02
299             	3.26839980e+02
300             	3.26842677e+02
301             	3.26845432e+02
302             	3.26848512e+02
303             	3.26851703e+02
304             	3.26854759e+02
305             	3.26857474e+02
306             	3.26859983e+02
307             	3.26862164e+02
308             	3.26864258e+02
309             	3.26865877e+02
310             	3.26867299e+02
311             	3.26868779e+02
312             	3.26870694e+02
313             	3.26873187e+02
314             	3.26876191e+02
315             	3.26879437e+02
316             	3.26882375e+02
317             	3.26884658e+02
318             	3.26886454e+02
319             	3.26888673e+02
320             	3.26889887e+02
321             	3.26890790e+02
322             	3.26891556e+02
323             	3.26892068e+02
324             	3.26892322e+02
325             	3.26893215e+02
326             	3.26894210e+02
327             	3.26894081e+02
328             	3.26894037e+02
329             	3.26894039e+02
330             	3.26894080e+02
331             	3.26894160e+02
332             	3.26894359e+02
333             	3.26894679e+02
334             	3.26895111e+02
335             	3.26895609e+02
336             	3.26896153e+02
337             	3.26896851e+02
338             	3.26897458e+02
339             	3.26897775e+02
340             	3.26898021e+02
341             	3.26898301e+02
342             	3.26898606e+02
343             	3.26898984e+02
344             	3.26899753e+02
345             	3.26900835e+02
346             	3.26902211e+02
347             	3.26903804e+02
348             	3.26905429e+02
349             	3.26907330e+02
350             	3.26909443e+02
351             	3.26911602e+02
352             	3.26913723e+02
353             	3.26915884e+02
354             	3.26918081e+02
355             	3.26920035e+02
356             	3.26921706e+02
357             	3.26922944e+02
358             	3.26923551e+02
359             	3.26923962e+02
360             	3.26924290e+02
361             	3.26924996e+02
362             	3.26925711e+02
363             	3.26926530e+02
364             	3.26927445e+02
365             	3.26928616e+02
366             	3.26929758e+02
367             	3.26930703e+02
368             	3.26931439e+02
369             	3.26931984e+02
370             	3.26932297e+02
371             	3.26932292e+02
372             	3.26932217e+02
373             	3.26932049e+02
374             	3.26931670e+02
375             	3.26932892e+02
376             	3.26933296e+02
377             	3.26934119e+02
378             	3.26935952e+02
379             	3.26938251e+02
380             	3.26940639e+02
381             	3.26943361e+02
382             	3.26944348e+02
383             	3.26944857e+02
384             	3.26944518e+02
385             	3.26943766e+02
386             	3.26942794e+02
387             	3.26941609e+02
388             	3.26940911e+02
389             	3.26940784e+02
390             	3.26941022e+02
391             	3.26941501e+02
392             	3.26942600e+02
393             	3.26943992e+02
394             	3.26945634e+02
395             	3.26947541e+02
396             	3.26949338e+02
397             	3.26950847e+02
398             	3.26952010e+02
399             	3.26952064e+02
400             	3.26952095e+02
401             	3.26951448e+02
402             	3.26950745e+02
403             	3.26950162e+02
404             	3.26950124e+02
405             	3.26950940e+02
406             	3.26951218e+02
407             	3.26952255e+02
408             	3.26953740e+02
409             	3.26956208e+02
410             	3.26959053e+02
411             	3.26961349e+02
412             	3.26963285e+02
413             	3.26965576e+02
414             	3.26967472e+02
415             	3.26968908e+02
416             	3.26970295e+02
417             	3.26971188e+02
418             	3.26972404e+02
419             	3.26973526e+02
420             	3.26974362e+02
421             	3.26975162e+02
422             	3.26975611e+02
423             	3.26975441e+02
424             	3.26974950e+02
425             	3.26974283e+02
426             	3.26973585e+02
427             	3.26972874e+02
428             	3.26972092e+02
429             	3.26971342e+02
430             	3.26970688e+02
431             	3.26969924e+02
432             	3.26969618e+02
433             	3.26969473e+02
434             	3.26969362e+02
435             	3.26969336e+02
436             	3.26969390e+02
437             	3.26969488e+02
438             	3.26969552e+02
439             	3.26969530e+02
440             	3.26969417e+02
441             	3.26969166e+02
442             	3.26968803e+02
443             	3.26968321e+02
444             	3.26967901e+02
445             	3.26967285e+02
446             	3.26966508e+02
447             	3.26965426e+02
448             	3.26964184e+02
449             	3.26962891e+02
450             	3.26961546e+02
451             	3.26960145e+02
452             	3.26958667e+02
453             	3.26957145e+02
454             	3.26955594e+02
455             	3.26954025e+02
456             	3.26952527e+02
457             	3.26951029e+02
458             	3.26949658e+02
459             	3.26948546e+02
460             	3.26948035e+02
461             	3.26947848e+02
462             	3.26948083e+02
463             	3.26948722e+02
464             	3.26949722e+02
465             	3.26950918e+02
466             	3.26952565e+02
467             	3.26954455e+02
468             	3.26956526e+02
469             	3.26958292e+02
470             	3.26960338e+02
471             	3.26962339e+02
472             	3.26964084e+02
473             	3.26965538e+02
474             	3.26966747e+02
475             	3.26967589e+02
476             	3.26968039e+02
477             	3.26968783e+02
478             	3.26968567e+02
479             	3.26968177e+02
480             	3.26967920e+02
481             	3.26967980e+02
482             	3.26968580e+02
483             	3.26970089e+02
484             	3.26972338e+02
485             	3.26974921e+02
486             	3.26977296e+02
487             	3.26979781e+02
488             	3.26982205e+02
489             	3.26984404e+02
490             	3.26986399e+02
491             	3.26988194e+02
492             	3.26989722e+02
493             	3.26990943e+02
494             	3.26991822e+02
495             	3.26992347e+02
496             	3.26992668e+02
497             	3.26992960e+02
498             	3.26992897e+02
499             	3.26992617e+02
500             	3.26992258e+02
501             	3.26991814e+02
502             	3.26991228e+02
503             	3.26990361e+02
504             	3.26989579e+02
505             	3.26988989e+02
506             	3.26988405e+02
507             	3.26987821e+02
508             	3.26987117e+02
509             	3.26986311e+02
510             	3.26985435e+02
511             	3.26984428e+02
512             	3.26983215e+02
513             	3.26981755e+02
514             	3.26980650e+02
515             	3.26979223e+02
516             	3.26977860e+02
517             	3.26976725e+02
518             	3.26975839e+02
519             	3.26975490e+02
520             	3.26975677e+02
521             	3.26976293e+02
522             	3.26977228e+02
523             	3.26978560e+02
524             	3.26979960e+02
525             	3.26981430e+02
526             	3.26983043e+02
527             	3.26984514e+02
528             	3.26985748e+02
529             	3.26986979e+02
530             	3.26987963e+02
531             	3.26988823e+02
532             	3.26989592e+02
533             	3.26990277e+02
534             	3.26990853e+02
535             	3.26991292e+02
536             	3.26991618e+02
537             	3.26991786e+02
538             	3.26991897e+02
539             	3.26992073e+02
540             	3.26992211e+02
541             	3.26992298e+02
542             	3.26992411e+02
543             	3.26992582e+02
544             	3.26992779e+02
545             	3.26992879e+02
546             	3.26992757e+02
547             	3.26992330e+02
548             	3.26991784e+02
549             	3.26990766e+02
550             	3.26989488e+02
551             	3.26989140e+02
552             	3.26988182e+02
553             	3.26987190e+02
554             	3.26986432e+02
555             	3.26985797e+02
556             	3.26985174e+02
557             	3.26984558e+02
558             	3.26983984e+02
559             	3.26983503e+02
560             	3.26983160e+02
561             	3.26982997e+02
562             	3.26983074e+02
563             	3.26983462e+02
564             	3.26984256e+02
565             	3.26985396e+02
566             	3.26986609e+02
567             	3.26987989e+02
568             	3.26989568e+02
569             	3.26991133e+02
570             	3.26992547e+02
571             	3.26993969e+02
572             	3.26995171e+02
573             	3.26996182e+02
574             	3.26996983e+02
575             	3.26997545e+02
576             	3.26997835e+02
577             	3.26997677e+02
578             	3.26997387e+02
579             	3.26996800e+02
580             	3.26995249e+02
581             	3.26993395e+02
582             	3.26991402e+02
583             	3.26989205e+02
584             	3.26986889e+02
585             	3.26984660e+02
586             	3.26982574e+02
587             	3.26980822e+02
588             	3.26979515e+02
589             	3.26978709e+02
590             	3.26978514e+02
591             	3.26978645e+02
592             	3.26979416e+02
593             	3.26980651e+02
594             	3.26982103e+02
595             	3.26983534e+02
596             	3.26984984e+02
597             	3.26986300e+02
598             	3.26987391e+02
599             	3.26988281e+02
600             	3.26988987e+02
601             	3.26989519e+02
602             	3.26989921e+02
603             	3.26990207e+02
604             	3.26990406e+02
605             	3.26990534e+02
606             	3.26990524e+02
607             	3.26990468e+02
608             	3.26990550e+02
609             	3.26990715e+02
610             	3.26990837e+02
611             	3.26990999e+02
612             	3.26991257e+02
613             	3.26991573e+02
614             	3.26991899e+02
615             	3.26992205e+02
616             	3.26992462e+02
617             	3.26992663e+02
618             	3.26992786e+02
619             	3.26992816e+02
620             	3.26992740e+02
621             	3.26992504e+02
622             	3.26992078e+02
623             	3.26991443e+02
624             	3.26991082e+02
625             	3.26989917e+02
626             	3.26988404e+02
627             	3.26986624e+02
628             	3.26984795e+02
629             	3.26983078e+02
630             	3.26981619e+02
631             	3.26980552e+02
632             	3.26979854e+02
633             	3.26979808e+02
634             	3.26980448e+02
635             	3.26981647e+02
636             	3.26984220e+02
637             	3.26986042e+02
638             	3.26987182e+02
639             	3.26988278e+02
640             	3.26988724e+02
641             	3.26989349e+02
642             	3.26989647e+02
643             	3.26989527e+02
644             	3.26989116e+02
645             	3.26988580e+02
646             	3.26988411e+02
647             	3.26987757e+02
648             	3.26986922e+02
649             	3.26985818e+02
650             	3.26984456e+02
651             	3.26982974e+02
652             	3.26981476e+02
653             	3.26979951e+02
654             	3.26978980e+02
655             	3.26977365e+02
656             	3.26975883e+02
657             	3.26974766e+02
658             	3.26973875e+02
659             	3.26972945e+02
660             	3.26972191e+02
661             	3.26971915e+02
662             	3.26972075e+02
663             	3.26971749e+02
664             	3.26972077e+02
665             	3.26972644e+02
666             	3.26973514e+02
667             	3.26974922e+02
668             	3.26976642e+02
669             	3.26978586e+02
670             	3.26980644e+02
671             	3.26982659e+02
672             	3.26984551e+02
673             	3.26986150e+02
674             	3.26987367e+02
675             	3.26988175e+02
676             	3.26988763e+02
677             	3.26989147e+02
678             	3.26988976e+02
679             	3.26988533e+02
680             	3.26988016e+02
681             	3.26987545e+02
682             	3.26987132e+02
683             	3.26986774e+02
684             	3.26986509e+02
685             	3.26986413e+02
686             	3.26986527e+02
687             	3.26986869e+02
688             	3.26987350e+02
689             	3.26987853e+02
690             	3.26988293e+02
691             	3.26988669e+02
692             	3.26989001e+02
693             	3.26989243e+02
694             	3.26989330e+02
695             	3.26989201e+02
696             	3.26989066e+02
697             	3.26988329e+02
698             	3.26987171e+02
699             	3.26985646e+02
700             	3.26983744e+02
701             	3.26981854e+02
702             	3.26980101e+02
703             	3.26978588e+02
704             	3.26977426e+02
705             	3.26976714e+02
706             	3.26976428e+02
707             	3.26976519e+02
708             	3.26976853e+02
709             	3.26977335e+02
710             	3.26977883e+02
711             	3.26978515e+02
712             	3.26979349e+02
713             	3.26980479e+02
714             	3.26981845e+02
715             	3.26983267e+02
716             	3.26984466e+02
717             	3.26985397e+02
718             	3.26986026e+02
719             	3.26986541e+02
720             	3.26986661e+02
721             	3.26986247e+02
722             	3.26985458e+02
723             	3.26984603e+02
724             	3.26984436e+02
725             	3.26983465e+02
726             	3.26982828e+02
727             	3.26982884e+02
728             	3.26983564e+02
729             	3.26984449e+02
730             	3.26985517e+02
731             	3.26986900e+02
732             	3.26988107e+02
733             	3.26989478e+02
734             	3.26990781e+02
735             	3.26991822e+02
736             	3.26992536e+02
737             	3.26992963e+02
738             	3.26993380e+02
739             	3.26993929e+02
740             	3.26994464e+02
741             	3.26995141e+02
742             	3.26996108e+02
743             	3.26997386e+02
744             	3.26998889e+02
745             	3.27000492e+02
746             	3.27002075e+02
747             	3.27003589e+02
748             	3.27004971e+02
749             	3.27006207e+02
750             	3.27007212e+02
751             	3.27008277e+02
752             	3.27008518e+02
753             	3.27008211e+02
754             	3.27007883e+02
755             	3.27007245e+02
756             	3.27006323e+02
757             	3.27005248e+02
758             	3.27004100e+02
759             	3.27002958e+02
760             	3.27001909e+02
761             	3.27001028e+02
762             	3.27000356e+02
763             	3.26999888e+02
764             	3.26999544e+02
765             	3.26999208e+02
766             	3.26998813e+02
767             	3.26998153e+02
768             	3.26997231e+02
769             	3.26995972e+02
770             	3.26994629e+02
771             	3.26993228e+02
772             	3.26991574e+02
773             	3.26989822e+02
774             	3.26988022e+02
775             	3.26986199e+02
776             	3.26984499e+02
777             	3.26983063e+02
778             	3.26982067e+02
779             	3.26981597e+02
780             	3.26981630e+02
781             	3.26982205e+02
782             	3.26982813e+02
783             	3.26983765e+02
784             	3.26984911e+02
785             	3.26985938e+02
786             	3.26986851e+02
787             	3.26987625e+02
788             	3.26988040e+02
789             	3.26988458e+02
790             	3.26988518e+02
791             	3.26988142e+02
792             	3.26987507e+02
793             	3.26986790e+02
794             	3.26986214e+02
795             	3.26984970e+02
796             	3.26984083e+02
797             	3.26982900e+02
798             	3.26981693e+02
799             	3.26980661e+02
800             	3.26979874e+02
801             	3.26979297e+02
802             	3.26978904e+02
803             	3.26978775e+02
804             	3.26978910e+02
805             	3.26979277e+02
806             	3.26979836e+02
807             	3.26980565e+02
808             	3.26981352e+02
809             	3.26982112e+02
810             	3.26982674e+02
811             	3.26983132e+02
812             	3.26983500e+02
813             	3.26983794e+02
814             	3.26983960e+02
815             	3.26984003e+02
816             	3.26983996e+02
817             	3.26983989e+02
818             	3.26984320e+02
819             	3.26985041e+02
820             	3.26986135e+02
821             	3.26987560e+02
822             	3.26989304e+02
823             	3.26991345e+02
824             	3.26992840e+02
825             	3.26994546e+02
826             	3.26996204e+02
827             	3.26997614e+02
828             	3.26998749e+02
829             	3.26999609e+02
830             	3.27000255e+02
831             	3.27000524e+02
832             	3.27000257e+02
833             	3.26999439e+02
834             	3.26998854e+02
835             	3.26997488e+02
836             	3.26995737e+02
837             	3.26993857e+02
838             	3.26992156e+02
839             	3.26990434e+02
840             	3.26988638e+02
841             	3.26986869e+02
842             	3.26985120e+02
843             	3.26983491e+02
844             	3.26981962e+02
845             	3.26980527e+02
846             	3.26979221e+02
847             	3.26978010e+02
848             	3.26976876e+02
849             	3.26975796e+02
850             	3.26974737e+02
851             	3.26973726e+02
852             	3.26972847e+02
853             	3.26972232e+02
854             	3.26972273e+02
855             	3.26972775e+02
856             	3.26973627e+02
857             	3.26975039e+02
858             	3.26976710e+02
859             	3.26978476e+02
860             	3.26980174e+02
861             	3.26981918e+02
862             	3.26983579e+02
863             	3.26985074e+02
864             	3.26986378e+02
865             	3.26987455e+02
866             	3.26988289e+02
867             	3.26988884e+02
868             	3.26989192e+02
869             	3.26989166e+02
870             	3.26988806e+02
871             	3.26988347e+02
872             	3.26987195e+02
873             	3.26986277e+02
874             	3.26985095e+02
875             	3.26983849e+02
876             	3.26982569e+02
877             	3.26981207e+02
878             	3.26979905e+02
879             	3.26978576e+02
880             	3.26977285e+02
881             	3.26976184e+02
882             	3.26975380e+02
883             	3.26974919e+02
884             	3.26975109e+02
885             	3.26975913e+02
886             	3.26977215e+02
887             	3.26978220e+02
888             	3.26979970e+02
889             	3.26982114e+02
890             	3.26984158e+02
891             	3.26986135e+02
892             	3.26987991e+02
893             	3.26989732e+02
894             	3.26991307e+02
895             	3.26992663e+02
896             	3.26993717e+02
897             	3.26994403e+02
898             	3.26994663e+02
899             	3.26994523e+02
900             	3.26993967e+02
901             	3.26993019e+02
902             	3.26991726e+02
903             	3.26990135e+02
904             	3.26988305e+02
905             	3.26986289e+02
906             	3.26984166e+02
907             	3.26982001e+02
908             	3.26979898e+02
909             	3.26977797e+02
910             	3.26975851e+02
911             	3.26973913e+02
912             	3.26972031e+02
913             	3.26970201e+02
914             	3.26968303e+02
915             	3.26966726e+02
916             	3.26965101e+02
917             	3.26963534e+02
918             	3.26962265e+02
919             	3.26961292e+02
920             	3.26960631e+02
921             	3.26960327e+02
922             	3.26960437e+02
923             	3.26960937e+02
924             	3.26961872e+02
925             	3.26963374e+02
926             	3.26965001e+02
927             	3.26966860e+02
928             	3.26968534e+02
929             	3.26970055e+02
930             	3.26971561e+02
931             	3.26972960e+02
932             	3.26974213e+02
933             	3.26975135e+02