# Region        : cellZone pcb
# Cells         : 521
# Volume        : 9.50697699e-01
# Time          	volAverage(T)
1               	3.00016568e+02
2               	3.00048205e+02
3               	3.00092347e+02
4               	3.00148257e+02
5               	3.00211673e+02
6               	3.00283337e+02
7               	3.00362941e+02
8               	3.00451592e+02
9               	3.00550546e+02
10              	3.00658389e+02
11              	3.00771777e+02
12              	3.00889331e+02
13              	3.01015900e+02
14              	3.01148370e+02
15              	3.01285363e+02
16              	3.01426557e+02
17              	3.01572626e+02
18              	3.01716398e+02
19              	3.01862305e+02
20              	3.02009828e+02
21              	3.02160575e+02
22              	3.02314883e+02
23              	3.02474447e+02
24              	3.02634877e+02
25              	3.02798306e+02
26              	3.02963601e+02
27              	3.03125981e+02
28              	3.03287806e+02
29              	3.03452113e+02
30              	3.03618500e+02
31              	3.03788061e+02
32              	3.03963195e+02
33              	3.04136432e+02
34              	3.04317856e+02
35              	3.04504038e+02
36              	3.04691146e+02
37              	3.04867586e+02
38              	3.05040457e+02
39              	3.05213174e+02
40              	3.05384406e+02
41              	3.05557135e+02
42              	3.05734414e+02
43              	3.05913708e+02
44              	3.06088277e+02
45              	3.06263320e+02
46              	3.06445198e+02
47              	3.06627879e+02
48              	3.06803287e+02
49              	3.06973217e+02
50              	3.07141114e+02
51              	3.07312050e+02
52              	3.07490988e+02
53              	3.07665665e+02
54              	3.07832778e+02
55              	3.08001438e+02
56              	3.08176841e+02
57              	3.08352632e+02
58              	3.08520419e+02
59              	3.08679412e+02
60              	3.08837089e+02
61              	3.08998098e+02
62              	3.09155255e+02
63              	3.09305597e+02
64              	3.09459463e+02
65              	3.09611486e+02
66              	3.09764694e+02
67              	3.09913795e+02
68              	3.10062429e+02
69              	3.10212163e+02
70              	3.10364855e+02
71              	3.10523654e+02
72              	3.10681557e+02
73              	3.10841641e+02
74              	3.10997049e+02
75              	3.11150035e+02
76              	3.11299741e+02
77              	3.11449684e+02
78              	3.11594112e+02
79              	3.11732966e+02
80              	3.11873902e+02
81              	3.12007471e+02
82              	3.12133128e+02
83              	3.12263250e+02
84              	3.12405137e+02
85              	3.12551182e+02
86              	3.12684189e+02
87              	3.12812034e+02
88              	3.12942336e+02
89              	3.13071875e+02
90              	3.13200477e+02
91              	3.13320113e+02
92              	3.13435738e+02
93              	3.13553249e+02
94              	3.13669863e+02
95              	3.13784440e+02
96              	3.13899285e+02
97              	3.14013779e+02
98              	3.14128965e+02
99              	3.14252474e+02
100             	3.14382773e+02
101             	3.14513064e+02
102             	3.14638891e+02
103             	3.14756543e+02
104             	3.14870051e+02
105             	3.14983563e+02
106             	3.15093406e+02
107             	3.15196180e+02
108             	3.15288097e+02
109             	3.15392397e+02
110             	3.15488609e+02
111             	3.15583129e+02
112             	3.15677594e+02
113             	3.15771774e+02
114             	3.15874788e+02
115             	3.15985117e+02
116             	3.16091018e+02
117             	3.16195951e+02
118             	3.16293871e+02
119             	3.16392629e+02
120             	3.16490820e+02
121             	3.16572225e+02
122             	3.16648861e+02
123             	3.16736585e+02
124             	3.16816993e+02
125             	3.16894006e+02
126             	3.16983120e+02
127             	3.17072537e+02
128             	3.17150562e+02
129             	3.17221361e+02
130             	3.17291018e+02
131             	3.17363084e+02
132             	3.17437512e+02
133             	3.17509351e+02
134             	3.17564352e+02
135             	3.17623325e+02
136             	3.17684000e+02
137             	3.17745797e+02
138             	3.17815285e+02
139             	3.17887353e+02
140             	3.17957362e+02
141             	3.18032355e+02
142             	3.18105917e+02
143             	3.18178500e+02
144             	3.18246328e+02
145             	3.18310796e+02
146             	3.18373611e+02
147             	3.18436960e+02
148             	3.18503441e+02
149             	3.18567453e+02
150             	3.18627877e+02
151             	3.18688928e+02
152             	3.18752352e+02
153             	3.18816476e+02
154             	3.18877990e+02
155             	3.18936342e+02
156             	3.18988894e+02
157             	3.19044614e+02
158             	3.19095435e+02
159             	3.19150113e+02
160             	3.19200667e+02
161             	3.19251475e+02
162             	3.19306628e+02
163             	3.19363936e+02
164             	3.19422240e+02
165             	3.19483262e+02
166             	3.19539773e+02
167             	3.19597913e+02
168             	3.19649902e+02
169             	3.19701744e+02
170             	3.19754043e+02
171             	3.19810882e+02
172             	3.19867128e+02
173             	3.19923565e+02
174             	3.19981829e+02
175             	3.20044867e+02
176             	3.20109136e+02
177             	3.20169378e+02
178             	3.20225184e+02
179             	3.20276550e+02
180             	3.20322439e+02
181             	3.20365183e+02
182             	3.20408093e+02
183             	3.20452294e+02
184             	3.20500814e+02
185             	3.20552047e+02
186             	3.20599290e+02
187             	3.20644653e+02
188             	3.20689376e+02
189             	3.20734899e+02
190             	3.20782620e+02
191             	3.20833229e+02
192             	3.20886073e+02
193             	3.20942897e+02
194             	3.20997126e+02
195             	3.21048344e+02
196             	3.21098681e+02
197             	3.21147257e+02
198             	3.21195074e+02
199             	3.21251798e+02
200             	3.21308283e+02
201             	3.21363582e+02
202             	3.21416683e+02
203             	3.21468954e+02
204             	3.21527607e+02
205             	3.21577099e+02
206             	3.21615191e+02
207             	3.21648087e+02
208             	3.21682705e+02
209             	3.21719724e+02
210             	3.21758487e+02
211             	3.21800416e+02
212             	3.21845510e+02
213             	3.21895065e+02
214             	3.21943636e+02
215             	3.21991398e+02
216             	3.22039162e+02
217             	3.22078869e+02
218             	3.22117618e+02
219             	3.22167552e+02
220             	3.22211708e+02
221             	3.22246133e+02
222             	3.22285879e+02
223             	3.22326106e+02
224             	3.22363484e+02
225             	3.22394399e+02
226             	3.22432013e+02
227             	3.22469261e+02
228             	3.22504918e+02
229             	3.22545117e+02
230             	3.22589418e+02
231             	3.22633609e+02
232             	3.22679499e+02
233             	3.22724927e+02
234             	3.22766441e+02
235             	3.22799412e+02
236             	3.22821501e+02
237             	3.22841808e+02
238             	3.22858773e+02
239             	3.22876443e+02
240             	3.22894717e+02
241             	3.22917572e+02
242             	3.22940604e+02
243             	3.22966982e+02
244             	3.22994525e+02
245             	3.23023331e+02
246             	3.23053959e+02
247             	3.23083677e+02
248             	3.23111267e+02
249             	3.23138248e+02
250             	3.23168276e+02
251             	3.23193227e+02
252             	3.23214964e+02
253             	3.23234985e+02
254             	3.23255527e+02
255             	3.23275851e+02
256             	3.23296176e+02
257             	3.23316221e+02
258             	3.23335335e+02
259             	3.23357412e+02
260             	3.23377940e+02
261             	3.23394548e+02
262             	3.23409663e+02
263             	3.23422669e+02
264             	3.23434468e+02
265             	3.23446357e+02
266             	3.23459615e+02
267             	3.23474701e+02
268             	3.23492280e+02
269             	3.23512546e+02
270             	3.23536128e+02
271             	3.23557793e+02
272             	3.23581417e+02
273             	3.23606902e+02
274             	3.23632854e+02
275             	3.23658336e+02
276             	3.23683996e+02
277             	3.23705702e+02
278             	3.23725613e+02
279             	3.23744890e+02
280             	3.23763443e+02
281             	3.23780990e+02
282             	3.23797660e+02
283             	3.23815861e+02
284             	3.23832782e+02
285             	3.23844203e+02
286             	3.23853727e+02
287             	3.23863775e+02
288             	3.23874992e+02
289             	3.23885425e+02
290             	3.23897423e+02
291             	3.23913246e+02
292             	3.23933521e+02
293             	3.23958919e+02
294             	3.23983689e+02
295             	3.24008624e+02
296             	3.24032430e+02
297             	3.24054520e+02
298             	3.24072912e+02
299             	3.24088664e+02
300             	3.24104376e+02
301             	3.24121038e+02
302             	3.24139024e+02
303             	3.24160486e+02
304             	3.24181090e+02
305             	3.24199946e+02
306             	3.24216594e+02
307             	3.24232959e+02
308             	3.24249934e+02
309             	3.24267685e+02
310             	3.24287453e+02
311             	3.24305829e+02
312             	3.24324083e+02
313             	3.24344537e+02
314             	3.24365426e+02
315             	3.24386393e+02
316             	3.24409052e+02
317             	3.24431949e+02
318             	3.24455338e+02
319             	3.24478765e+02
320             	3.24501960e+02
321             	3.24521303e+02
322             	3.24537062e+02
323             	3.24551300e+02
324             	3.24566039e+02
325             	3.24579478e+02
326             	3.24592943e+02
327             	3.24605834e+02
328             	3.24617720e+02
329             	3.24629594e+02
330             	3.24642006e+02
331             	3.24654734e+02
332             	3.24668580e+02
333             	3.24683241e+02
334             	3.24698726e+02
335             	3.24712649e+02
336             	3.24728570e+02
337             	3.24746300e+02
338             	3.24764975e+02
339             	3.24784427e+02
340             	3.24805103e+02
341             	3.24826370e+02
342             	3.24845895e+02
343             	3.24864414e+02
344             	3.24881173e+02
345             	3.24896646e+02
346             	3.24911466e+02
347             	3.24926018e+02
348             	3.24940395e+02
349             	3.24955381e+02
350             	3.24969246e+02
351             	3.24984677e+02
352             	3.25000138e+02
353             	3.25014005e+02
354             	3.25027567e+02
355             	3.25041710e+02
356             	3.25056382e+02
357             	3.25071504e+02
358             	3.25086675e+02
359             	3.25101548e+02
360             	3.25116806e+02
361             	3.25132688e+02
362             	3.25149047e+02
363             	3.25165154e+02
364             	3.25179620e+02
365             	3.25194506e+02
366             	3.25209589e+02
367             	3.25224859e+02
368             	3.25240441e+02
369             	3.25256618e+02
370             	3.25272855e+02
371             	3.25289008e+02
372             	3.25303678e+02
373             	3.25315980e+02
374             	3.25325600e+02
375             	3.25333924e+02
376             	3.25342339e+02
377             	3.25351498e+02
378             	3.25359534e+02
379             	3.25367213e+02
380             	3.25375275e+02
381             	3.25383800e+02
382             	3.25393156e+02
383             	3.25403125e+02
384             	3.25413904e+02
385             	3.25425281e+02
386             	3.25437219e+02
387             	3.25449791e+02
388             	3.25462322e+02
389             	3.25474334e+02
390             	3.25487157e+02
391             	3.25500553e+02
392             	3.25513571e+02
393             	3.25526603e+02
394             	3.25539114e+02
395             	3.25551212e+02
396             	3.25562462e+02
397             	3.25572746e+02
398             	3.25581973e+02
399             	3.25590682e+02
400             	3.25597969e+02
401             	3.25605675e+02
402             	3.25614187e+02
403             	3.25619754e+02
404             	3.25624025e+02
405             	3.25628102e+02
406             	3.25632240e+02
407             	3.25636788e+02
408             	3.25642007e+02
409             	3.25648276e+02
410             	3.25655630e+02
411             	3.25663770e+02
412             	3.25672161e+02
413             	3.25681083e+02
414             	3.25690171e+02
415             	3.25700130e+02
416             	3.25710414e+02
417             	3.25720847e+02
418             	3.25731505e+02
419             	3.25742366e+02
420             	3.25753042e+02
421             	3.25763130e+02
422             	3.25772571e+02
423             	3.25780512e+02
424             	3.25788309e+02
425             	3.25794761e+02
426             	3.25800778e+02
427             	3.25806726e+02
428             	3.25812476e+02
429             	3.25818207e+02
430             	3.25823973e+02
431             	3.25829669e+02
432             	3.25835062e+02
433             	3.25839722e+02
434             	3.25844070e+02
435             	3.25849064e+02
436             	3.25854058e+02
437             	3.25859189e+02
438             	3.25864784e+02
439             	3.25870866e+02
440             	3.25877591e+02
441             	3.25884599e+02
442             	3.25891774e+02
443             	3.25899130e+02
444             	3.25906729e+02
445             	3.25913937e+02
446             	3.25920874e+02
447             	3.25927768e+02
448             	3.25934411e+02
449             	3.25941084e+02
450             	3.25947842e+02
451             	3.25954875e+02
452             	3.25962347e+02
453             	3.25970227e+02
454             	3.25978294e+02
455             	3.25986455e+02
456             	3.25994496e+02
457             	3.26001056e+02
458             	3.26007951e+02
459             	3.26015152e+02
460             	3.26022219e+02
461             	3.26029021e+02
462             	3.26035543e+02
463             	3.26041647e+02
464             	3.26048093e+02
465             	3.26053268e+02
466             	3.26057799e+02
467             	3.26061395e+02
468             	3.26064439e+02
469             	3.26067428e+02
470             	3.26070530e+02
471             	3.26073907e+02
472             	3.26077709e+02
473             	3.26082221e+02
474             	3.26087202e+02
475             	3.26092399e+02
476             	3.26097619e+02
477             	3.26102905e+02
478             	3.26107215e+02
479             	3.26111781e+02
480             	3.26116642e+02
481             	3.26121561e+02
482             	3.26126469e+02
483             	3.26131546e+02
484             	3.26136417e+02
485             	3.26141086e+02
486             	3.26145761e+02
487             	3.26150293e+02
488             	3.26154486e+02
489             	3.26157894e+02
490             	3.26160656e+02
491             	3.26163983e+02
492             	3.26167842e+02
493             	3.26172108e+02
494             	3.26174958e+02
495             	3.26177331e+02
496             	3.26179904e+02
497             	3.26183017e+02
498             	3.26186857e+02
499             	3.26190834e+02
500             	3.26195351e+02
501             	3.26200998e+02
502             	3.26206781e+02
503             	3.26212659e+02
504             	3.26218383e+02
505             	3.26223957e+02
506             	3.26229280e+02
507             	3.26234089e+02
508             	3.26238095e+02
509             	3.26241085e+02
510             	3.26243392e+02
511             	3.26245322e+02
512             	3.26247098e+02
513             	3.26248442e+02
514             	3.26250734e+02
515             	3.26250136e+02
516             	3.26248535e+02
517             	3.26247365e+02
518             	3.26246804e+02
519             	3.26247536e+02
520             	3.26249016e+02
521             	3.26250886e+02
522             	3.26253920e+02
523             	3.26257827e+02
524             	3.26262073e+02
525             	3.26266350e+02
526             	3.26271449e+02
527             	3.26277152e+02
528             	3.26283027e+02
529             	3.26287680e+02
530             	3.26290901e+02
531             	3.26293497e+02
532             	3.26295332e+02
533             	3.26296739e+02
534             	3.26297974e+02
535             	3.26299204e+02
536             	3.26300015e+02
537             	3.26300453e+02
538             	3.26301317e+02
539             	3.26301983e+02
540             	3.26302464e+02
541             	3.26302924e+02
542             	3.26303743e+02
543             	3.26304818e+02
544             	3.26305961e+02
545             	3.26307627e+02
546             	3.26310275e+02
547             	3.26313450e+02
548             	3.26316565e+02
549             	3.26319379e+02
550             	3.26322282e+02
551             	3.26325032e+02
552             	3.26328016e+02
553             	3.26331201e+02
554             	3.26334319e+02
555             	3.26337392e+02
556             	3.26340699e+02
557             	3.26344055e+02
558             	3.26347180e+02
559             	3.26350541e+02
560             	3.26353447e+02
561             	3.26356117e+02
562             	3.26358601e+02
563             	3.26360664e+02
564             	3.26362075e+02
565             	3.26362733e+02
566             	3.26363069e+02
567             	3.26363337e+02
568             	3.26363670e+02
569             	3.26364390e+02
570             	3.26365066e+02
571             	3.26365841e+02
572             	3.26366707e+02
573             	3.26367788e+02
574             	3.26369064e+02
575             	3.26370703e+02
576             	3.26372414e+02
577             	3.26374390e+02
578             	3.26376099e+02
579             	3.26378035e+02
580             	3.26380007e+02
581             	3.26381720e+02
582             	3.26383191e+02
583             	3.26384583e+02
584             	3.26386226e+02
585             	3.26387543e+02
586             	3.26388613e+02
587             	3.26389836e+02
588             	3.26391262e+02
589             	3.26392636e+02
590             	3.26394164e+02
591             	3.26395922e+02
592             	3.26397823e+02
593             	3.26399786e+02
594             	3.26401794e+02
595             	3.26403722e+02
596             	3.26405246e+02
597             	3.26406915e+02
598             	3.26408786e+02
599             	3.26410742e+02
600             	3.26412479e+02
601             	3.26413933e+02
602             	3.26414821e+02
603             	3.26415325e+02
604             	3.26415608e+02
605             	3.26415852e+02
606             	3.26416159e+02
607             	3.26416457e+02
608             	3.26416707e+02
609             	3.26417012e+02
610             	3.26417439e+02
611             	3.26417814e+02
612             	3.26418168e+02
613             	3.26418631e+02
614             	3.26419270e+02
615             	3.26420172e+02
616             	3.26421274e+02
617             	3.26422366e+02
618             	3.26423556e+02
619             	3.26424814e+02
620             	3.26426100e+02
621             	3.26427467e+02
622             	3.26428974e+02
623             	3.26430804e+02
624             	3.26432962e+02
625             	3.26435175e+02
626             	3.26437302e+02
627             	3.26439391e+02
628             	3.26441401e+02
629             	3.26443380e+02
630             	3.26445266e+02
631             	3.26446920e+02
632             	3.26448303e+02
633             	3.26449826e+02
634             	3.26451488e+02
635             	3.26453190e+02
636             	3.26454936e+02
637             	3.26456621e+02
638             	3.26458243e+02
639             	3.26459833e+02
640             	3.26461322e+02
641             	3.26462670e+02
642             	3.26463890e+02
643             	3.26465013e+02
644             	3.26466047e+02
645             	3.26466745e+02
646             	3.26467469e+02
647             	3.26468196e+02
648             	3.26468765e+02
649             	3.26469253e+02
650             	3.26469741e+02
651             	3.26469959e+02
652             	3.26470190e+02
653             	3.26470157e+02
654             	3.26469808e+02
655             	3.26469538e+02
656             	3.26469402e+02
657             	3.26469383e+02
658             	3.26469498e+02
659             	3.26469693e+02
660             	3.26469899e+02
661             	3.26470110e+02
662             	3.26470340e+02
663             	3.26470364e+02
664             	3.26470222e+02
665             	3.26469936e+02
666             	3.26469650e+02
667             	3.26469412e+02
668             	3.26469367e+02
669             	3.26469524e+02
670             	3.26470212e+02
671             	3.26470982e+02
672             	3.26471864e+02
673             	3.26472844e+02
674             	3.26473978e+02
675             	3.26475306e+02
676             	3.26476822e+02
677             	3.26478473e+02
678             	3.26480296e+02
679             	3.26482215e+02
680             	3.26484226e+02
681             	3.26486258e+02
682             	3.26488086e+02
683             	3.26489758e+02
684             	3.26491067e+02
685             	3.26492088e+02
686             	3.26493077e+02
687             	3.26494038e+02
688             	3.26494890e+02
689             	3.26495518e+02
690             	3.26495762e+02
691             	3.26495763e+02
692             	3.26494961e+02
693             	3.26494663e+02
694             	3.26495071e+02
695             	3.26495934e+02
696             	3.26496883e+02
697             	3.26497749e+02
698             	3.26498364e+02
699             	3.26498725e+02
700             	3.26499106e+02
701             	3.26499421e+02
702             	3.26498887e+02
703             	3.26498076e+02
704             	3.26497108e+02
705             	3.26496064e+02
706             	3.26495096e+02
707             	3.26494307e+02
708             	3.26494057e+02
709             	3.26494198e+02
710             	3.26494564e+02
711             	3.26495177e+02
712             	3.26495895e+02
713             	3.26496582e+02
714             	3.26497324e+02
715             	3.26498232e+02
716             	3.26499261e+02
717             	3.26500496e+02
718             	3.26502306e+02
719             	3.26504202e+02
720             	3.26506083e+02
721             	3.26507949e+02
722             	3.26509966e+02
723             	3.26512051e+02
724             	3.26514225e+02
725             	3.26516268e+02
726             	3.26517816e+02
727             	3.26519610e+02
728             	3.26521510e+02
729             	3.26523191e+02
730             	3.26524616e+02
731             	3.26525856e+02
732             	3.26526957e+02
733             	3.26527999e+02
734             	3.26528981e+02
735             	3.26529858e+02
736             	3.26530537e+02
737             	3.26531032e+02
738             	3.26531437e+02
739             	3.26531823e+02
740             	3.26532222e+02
741             	3.26532743e+02
742             	3.26533173e+02
743             	3.26533610e+02
744             	3.26533940e+02
745             	3.26534020e+02
746             	3.26534031e+02
747             	3.26533945e+02
748             	3.26533848e+02
749             	3.26533775e+02
750             	3.26533744e+02
751             	3.26533723e+02
752             	3.26533641e+02
753             	3.26533501e+02
754             	3.26533344e+02
755             	3.26533187e+02
756             	3.26533021e+02
757             	3.26532790e+02
758             	3.26532515e+02
759             	3.26532271e+02
760             	3.26532146e+02
761             	3.26532185e+02
762             	3.26532446e+02
763             	3.26532804e+02
764             	3.26533208e+02
765             	3.26533647e+02
766             	3.26534092e+02
767             	3.26534456e+02
768             	3.26534848e+02
769             	3.26535607e+02
770             	3.26536387e+02
771             	3.26537193e+02
772             	3.26538129e+02
773             	3.26539132e+02
774             	3.26540026e+02
775             	3.26540769e+02
776             	3.26541414e+02
777             	3.26541971e+02
778             	3.26542387e+02
779             	3.26542662e+02
780             	3.26542814e+02
781             	3.26542808e+02
782             	3.26542673e+02
783             	3.26542471e+02
784             	3.26542308e+02
785             	3.26542290e+02
786             	3.26542233e+02
787             	3.26542165e+02
788             	3.26542126e+02
789             	3.26542142e+02
790             	3.26542363e+02
791             	3.26541807e+02
792             	3.26541489e+02
793             	3.26541488e+02
794             	3.26541587e+02
795             	3.26541819e+02
796             	3.26541949e+02
797             	3.26541877e+02
798             	3.26541542e+02
799             	3.26541056e+02
800             	3.26540677e+02
801             	3.26540524e+02
802             	3.26539662e+02
803             	3.26538311e+02
804             	3.26537137e+02
805             	3.26535945e+02
806             	3.26534942e+02
807             	3.26534201e+02
808             	3.26533757e+02
809             	3.26533620e+02
810             	3.26533801e+02
811             	3.26534223e+02
812             	3.26534896e+02
813             	3.26536164e+02
814             	3.26537589e+02
815             	3.26538415e+02
816             	3.26538739e+02
817             	3.26539854e+02
818             	3.26541516e+02
819             	3.26543275e+02
820             	3.26544804e+02
821             	3.26545609e+02
822             	3.26545746e+02
823             	3.26545601e+02
824             	3.26544925e+02
825             	3.26544614e+02
826             	3.26542790e+02
827             	3.26541214e+02
828             	3.26538224e+02
829             	3.26535066e+02
830             	3.26532425e+02
831             	3.26530652e+02
832             	3.26530033e+02
833             	3.26529987e+02
834             	3.26530961e+02
835             	3.26532443e+02
836             	3.26534239e+02
837             	3.26536333e+02
838             	3.26541153e+02
839             	3.26546804e+02
840             	3.26552915e+02
841             	3.26559121e+02
842             	3.26559716e+02
843             	3.26557502e+02
844             	3.26554864e+02
845             	3.26551575e+02
846             	3.26548800e+02
847             	3.26547218e+02
848             	3.26545724e+02
849             	3.26544262e+02
850             	3.26542730e+02
851             	3.26540546e+02
852             	3.26537672e+02
853             	3.26534816e+02
854             	3.26532404e+02
855             	3.26530665e+02
856             	3.26529657e+02
857             	3.26529470e+02
858             	3.26530178e+02
859             	3.26531564e+02
860             	3.26533444e+02
861             	3.26535515e+02
862             	3.26537720e+02
863             	3.26539394e+02
864             	3.26541566e+02
865             	3.26543386e+02
866             	3.26544605e+02
867             	3.26545596e+02
868             	3.26546984e+02
869             	3.26547932e+02
870             	3.26548770e+02
871             	3.26549511e+02
872             	3.26549662e+02
873             	3.26549165e+02
874             	3.26548092e+02
875             	3.26545402e+02
876             	3.26541823e+02
877             	3.26538029e+02
878             	3.26534503e+02
879             	3.26531225e+02
880             	3.26528159e+02
881             	3.26525634e+02
882             	3.26523521e+02
883             	3.26521388e+02
884             	3.26519558e+02
885             	3.26517990e+02
886             	3.26516844e+02
887             	3.26515851e+02
888             	3.26515195e+02
889             	3.26514258e+02
890             	3.26513248e+02
891             	3.26512425e+02
892             	3.26512047e+02
893             	3.26511979e+02
894             	3.26512309e+02
895             	3.26512976e+02
896             	3.26513776e+02
897             	3.26514573e+02
898             	3.26515344e+02
899             	3.26515969e+02
900             	3.26515990e+02
901             	3.26516169e+02
902             	3.26516565e+02
903             	3.26516917e+02
904             	3.26517248e+02
905             	3.26517543e+02
906             	3.26517633e+02
907             	3.26517520e+02
908             	3.26517351e+02
909             	3.26517163e+02
910             	3.26517083e+02
911             	3.26517139e+02
912             	3.26517318e+02
913             	3.26517465e+02
914             	3.26517555e+02
915             	3.26517908e+02
916             	3.26517886e+02
917             	3.26517661e+02
918             	3.26517117e+02
919             	3.26516293e+02
920             	3.26515425e+02
921             	3.26514656e+02
922             	3.26514032e+02
923             	3.26513585e+02
924             	3.26513205e+02
925             	3.26513091e+02
926             	3.26512785e+02
927             	3.26512440e+02
928             	3.26512168e+02
929             	3.26511711e+02
930             	3.26511161e+02
931             	3.26510502e+02
932             	3.26510056e+02
933             	3.26509605e+02