# Region        : cellZone pcb
# Cells         : 525
# Volume        : 9.68279968e-01
# Time          	volAverage(T)
1               	3.00013485e+02
2               	3.00039223e+02
3               	3.00075321e+02
4               	3.00121095e+02
5               	3.00174651e+02
6               	3.00236322e+02
7               	3.00305849e+02
8               	3.00382979e+02
9               	3.00467622e+02
10              	3.00559743e+02
11              	3.00659347e+02
12              	3.00766400e+02
13              	3.00878840e+02
14              	3.00996609e+02
15              	3.01119649e+02
16              	3.01248524e+02
17              	3.01382227e+02
18              	3.01520812e+02
19              	3.01664583e+02
20              	3.01813065e+02
21              	3.01966167e+02
22              	3.02124101e+02
23              	3.02287147e+02
24              	3.02454452e+02
25              	3.02626081e+02
26              	3.02800686e+02
27              	3.02979610e+02
28              	3.03162206e+02
29              	3.03348778e+02
30              	3.03538548e+02
31              	3.03731449e+02
32              	3.03927720e+02
33              	3.04127461e+02
34              	3.04330178e+02
35              	3.04535966e+02
36              	3.04743799e+02
37              	3.04955234e+02
38              	3.05170168e+02
39              	3.05386606e+02
40              	3.05605366e+02
41              	3.05825307e+02
42              	3.06048772e+02
43              	3.06275061e+02
44              	3.06502522e+02
45              	3.06731821e+02
46              	3.06963330e+02
47              	3.07197584e+02
48              	3.07434467e+02
49              	3.07672729e+02
50              	3.07915693e+02
51              	3.08158502e+02
52              	3.08400967e+02
53              	3.08644619e+02
54              	3.08889452e+02
55              	3.09135287e+02
56              	3.09381802e+02
57              	3.09629360e+02
58              	3.09879175e+02
59              	3.10130874e+02
60              	3.10385327e+02
61              	3.10638793e+02
62              	3.10892074e+02
63              	3.11146363e+02
64              	3.11402068e+02
65              	3.11658496e+02
66              	3.11914556e+02
67              	3.12171869e+02
68              	3.12431222e+02
69              	3.12691253e+02
70              	3.12953617e+02
71              	3.13213920e+02
72              	3.13472106e+02
73              	3.13731998e+02
74              	3.13991433e+02
75              	3.14250292e+02
76              	3.14509743e+02
77              	3.14769608e+02
78              	3.15029506e+02
79              	3.15289361e+02
80              	3.15549976e+02
81              	3.15813699e+02
82              	3.16082317e+02
83              	3.16349529e+02
84              	3.16614833e+02
85              	3.16874415e+02
86              	3.17131737e+02
87              	3.17387316e+02
88              	3.17641920e+02
89              	3.17897662e+02
90              	3.18154278e+02
91              	3.18411158e+02
92              	3.18668699e+02
93              	3.18926645e+02
94              	3.19184580e+02
95              	3.19441143e+02
96              	3.19694076e+02
97              	3.19949368e+02
98              	3.20202139e+02
99              	3.20454067e+02
100             	3.20705328e+02
101             	3.20957339e+02
102             	3.21208880e+02
103             	3.21461163e+02
104             	3.21713636e+02
105             	3.21965231e+02
106             	3.22215105e+02
107             	3.22460606e+02
108             	3.22703548e+02
109             	3.22945320e+02
110             	3.23184979e+02
111             	3.23423823e+02
112             	3.23661484e+02
113             	3.23898096e+02
114             	3.24134208e+02
115             	3.24369876e+02
116             	3.24604626e+02
117             	3.24838510e+02
118             	3.25071623e+02
119             	3.25303678e+02
120             	3.25534522e+02
121             	3.25764291e+02
122             	3.25993262e+02
123             	3.26222147e+02
124             	3.26451407e+02
125             	3.26679517e+02
126             	3.26907254e+02
127             	3.27135110e+02
128             	3.27361687e+02
129             	3.27587186e+02
130             	3.27811252e+02
131             	3.28033398e+02
132             	3.28254104e+02
133             	3.28473220e+02
134             	3.28691513e+02
135             	3.28909258e+02
136             	3.29126164e+02
137             	3.29341374e+02
138             	3.29555527e+02
139             	3.29769320e+02
140             	3.29981147e+02
141             	3.30191523e+02
142             	3.30400936e+02
143             	3.30608984e+02
144             	3.30815599e+02
145             	3.31020722e+02
146             	3.31224459e+02
147             	3.31426883e+02
148             	3.31628089e+02
149             	3.31828286e+02
150             	3.32027687e+02
151             	3.32226053e+02
152             	3.32423534e+02
153             	3.32620188e+02
154             	3.32816260e+02
155             	3.33011141e+02
156             	3.33204608e+02
157             	3.33397189e+02
158             	3.33588712e+02
159             	3.33779131e+02
160             	3.33968220e+02
161             	3.34155722e+02
162             	3.34341740e+02
163             	3.34526236e+02
164             	3.34709709e+02
165             	3.34893267e+02
166             	3.35076025e+02
167             	3.35258248e+02
168             	3.35438822e+02
169             	3.35619208e+02
170             	3.35797711e+02
171             	3.35975593e+02
172             	3.36152084e+02
173             	3.36327391e+02
174             	3.36501618e+02
175             	3.36675006e+02
176             	3.36847072e+02
177             	3.37017739e+02
178             	3.37186908e+02
179             	3.37354593e+02
180             	3.37521122e+02
181             	3.37686635e+02
182             	3.37851151e+02
183             	3.38014485e+02
184             	3.38176792e+02
185             	3.38337974e+02
186             	3.38497954e+02
187             	3.38656748e+02
188             	3.38814387e+02
189             	3.38971052e+02
190             	3.39126737e+02
191             	3.39281676e+02
192             	3.39435627e+02
193             	3.39588134e+02
194             	3.39738988e+02
195             	3.39888520e+02
196             	3.40036871e+02
197             	3.40183613e+02
198             	3.40329169e+02
199             	3.40473337e+02
200             	3.40616048e+02
201             	3.40757382e+02
202             	3.40897524e+02
203             	3.41037361e+02
204             	3.41176348e+02
205             	3.41314166e+02
206             	3.41450909e+02
207             	3.41586671e+02
208             	3.41721737e+02
209             	3.41856179e+02
210             	3.41989643e+02
211             	3.42122066e+02
212             	3.42253473e+02
213             	3.42383865e+02
214             	3.42513257e+02
215             	3.42641696e+02
216             	3.42769171e+02
217             	3.42895356e+02
218             	3.43020086e+02
219             	3.43143165e+02
220             	3.43264821e+02
221             	3.43386155e+02
222             	3.43506164e+02
223             	3.43625083e+02
224             	3.43743178e+02
225             	3.43860590e+02
226             	3.43977853e+02
227             	3.44094173e+02
228             	3.44209607e+02
229             	3.44324217e+02
230             	3.44437891e+02
231             	3.44550594e+02
232             	3.44662303e+02
233             	3.44772549e+02
234             	3.44881389e+02
235             	3.44988962e+02
236             	3.45095141e+02
237             	3.45200167e+02
238             	3.45304274e+02
239             	3.45407524e+02
240             	3.45509842e+02
241             	3.45611289e+02
242             	3.45711915e+02
243             	3.45811583e+02
244             	3.45910113e+02
245             	3.46007492e+02
246             	3.46104705e+02
247             	3.46201456e+02
248             	3.46296882e+02
249             	3.46391262e+02
250             	3.46484871e+02
251             	3.46578055e+02
252             	3.46670683e+02
253             	3.46762860e+02
254             	3.46854692e+02
255             	3.46945791e+02
256             	3.47036229e+02
257             	3.47125963e+02
258             	3.47215105e+02
259             	3.47303742e+02
260             	3.47391685e+02
261             	3.47479020e+02
262             	3.47565576e+02
263             	3.47650985e+02
264             	3.47735122e+02
265             	3.47818629e+02
266             	3.47901070e+02
267             	3.47983534e+02
268             	3.48065070e+02
269             	3.48145844e+02
270             	3.48226120e+02
271             	3.48306254e+02
272             	3.48386341e+02
273             	3.48465858e+02
274             	3.48544693e+02
275             	3.48622886e+02
276             	3.48700489e+02
277             	3.48777439e+02
278             	3.48853829e+02
279             	3.48929638e+02
280             	3.49004845e+02
281             	3.49079463e+02
282             	3.49153181e+02
283             	3.49226476e+02
284             	3.49299149e+02
285             	3.49371091e+02
286             	3.49442295e+02
287             	3.49513025e+02
288             	3.49583246e+02
289             	3.49652704e+02
290             	3.49721533e+02
291             	3.49789915e+02
292             	3.49857364e+02
293             	3.49924376e+02
294             	3.49990736e+02
295             	3.50056103e+02
296             	3.50121054e+02
297             	3.50184944e+02
298             	3.50247908e+02
299             	3.50310713e+02
300             	3.50372701e+02
301             	3.50434353e+02
302             	3.50496061e+02
303             	3.50557152e+02
304             	3.50617752e+02
305             	3.50678040e+02
306             	3.50738082e+02
307             	3.50798003e+02
308             	3.50857891e+02
309             	3.50916602e+02
310             	3.50975276e+02
311             	3.51033435e+02
312             	3.51091199e+02
313             	3.51148217e+02
314             	3.51204674e+02
315             	3.51261394e+02
316             	3.51317149e+02
317             	3.51371846e+02
318             	3.51425742e+02
319             	3.51479083e+02
320             	3.51532103e+02
321             	3.51586124e+02
322             	3.51639769e+02
323             	3.51693752e+02
324             	3.51747471e+02
325             	3.51800954e+02
326             	3.51853805e+02
327             	3.51905092e+02
328             	3.51954492e+02
329             	3.52003710e+02
330             	3.52052982e+02
331             	3.52101265e+02
332             	3.52148585e+02
333             	3.52195832e+02
334             	3.52242337e+02
335             	3.52288742e+02
336             	3.52336159e+02
337             	3.52383944e+02
338             	3.52431616e+02
339             	3.52479216e+02
340             	3.52526310e+02
341             	3.52572640e+02
342             	3.52618823e+02
343             	3.52664364e+02
344             	3.52709604e+02
345             	3.52753796e+02
346             	3.52797547e+02
347             	3.52840469e+02
348             	3.52882380e+02
349             	3.52923949e+02
350             	3.52966005e+02
351             	3.53009033e+02
352             	3.53051534e+02
353             	3.53094089e+02
354             	3.53137076e+02
355             	3.53179627e+02
356             	3.53221796e+02
357             	3.53263531e+02
358             	3.53305175e+02
359             	3.53346484e+02
360             	3.53386562e+02
361             	3.53424966e+02
362             	3.53463178e+02
363             	3.53501768e+02
364             	3.53540588e+02
365             	3.53579898e+02
366             	3.53618858e+02
367             	3.53657962e+02
368             	3.53696918e+02
369             	3.53735807e+02
370             	3.53774373e+02
371             	3.53812772e+02
372             	3.53850684e+02
373             	3.53888672e+02
374             	3.53926108e+02
375             	3.53962816e+02
376             	3.53999499e+02
377             	3.54036514e+02
378             	3.54073265e+02
379             	3.54109343e+02
380             	3.54144332e+02
381             	3.54179148e+02
382             	3.54214334e+02
383             	3.54248186e+02
384             	3.54281448e+02
385             	3.54314354e+02
386             	3.54346617e+02
387             	3.54378720e+02
388             	3.54410900e+02
389             	3.54443518e+02
390             	3.54476209e+02
391             	3.54508810e+02
392             	3.54541189e+02
393             	3.54573452e+02
394             	3.54605749e+02
395             	3.54637425e+02
396             	3.54668166e+02
397             	3.54698208e+02
398             	3.54728099e+02
399             	3.54758223e+02
400             	3.54789191e+02
401             	3.54820497e+02
402             	3.54851775e+02
403             	3.54883334e+02
404             	3.54914511e+02
405             	3.54945592e+02
406             	3.54976581e+02
407             	3.55007121e+02
408             	3.55037393e+02
409             	3.55066667e+02
410             	3.55095803e+02
411             	3.55124417e+02
412             	3.55152591e+02
413             	3.55180669e+02
414             	3.55208543e+02
415             	3.55236860e+02
416             	3.55265266e+02
417             	3.55293593e+02
418             	3.55321278e+02
419             	3.55348250e+02
420             	3.55374751e+02
421             	3.55400380e+02
422             	3.55425598e+02
423             	3.55450472e+02
424             	3.55475465e+02
425             	3.55501361e+02
426             	3.55527327e+02
427             	3.55553228e+02
428             	3.55579823e+02
429             	3.55606055e+02
430             	3.55632658e+02
431             	3.55659076e+02
432             	3.55685190e+02
433             	3.55710954e+02
434             	3.55736475e+02
435             	3.55762176e+02
436             	3.55787753e+02
437             	3.55813219e+02
438             	3.55838365e+02
439             	3.55863333e+02
440             	3.55887789e+02
441             	3.55912053e+02
442             	3.55936340e+02
443             	3.55960399e+02
444             	3.55984469e+02
445             	3.56008520e+02
446             	3.56032071e+02
447             	3.56055563e+02
448             	3.56078167e+02
449             	3.56099924e+02
450             	3.56120965e+02
451             	3.56141446e+02
452             	3.56161752e+02
453             	3.56182944e+02
454             	3.56204155e+02
455             	3.56225590e+02
456             	3.56246986e+02
457             	3.56268366e+02
458             	3.56290644e+02
459             	3.56313546e+02
460             	3.56336499e+02
461             	3.56359606e+02
462             	3.56382540e+02
463             	3.56404894e+02
464             	3.56426591e+02
465             	3.56447837e+02
466             	3.56469042e+02
467             	3.56490559e+02
468             	3.56512460e+02
469             	3.56534638e+02
470             	3.56556787e+02
471             	3.56578662e+02
472             	3.56600448e+02
473             	3.56622184e+02
474             	3.56643790e+02
475             	3.56665328e+02
476             	3.56686823e+02
477             	3.56708061e+02
478             	3.56728344e+02
479             	3.56748138e+02
480             	3.56767939e+02
481             	3.56787072e+02
482             	3.56805654e+02
483             	3.56823898e+02
484             	3.56842081e+02
485             	3.56860348e+02
486             	3.56878896e+02
487             	3.56897920e+02
488             	3.56916949e+02
489             	3.56935896e+02
490             	3.56954904e+02
491             	3.56973985e+02
492             	3.56992973e+02
493             	3.57011875e+02
494             	3.57030831e+02
495             	3.57049908e+02
496             	3.57068952e+02
497             	3.57087844e+02
498             	3.57106539e+02
499             	3.57124971e+02
500             	3.57143169e+02
501             	3.57161165e+02
502             	3.57178906e+02
503             	3.57196296e+02
504             	3.57213938e+02
505             	3.57231397e+02
506             	3.57248614e+02
507             	3.57265632e+02
508             	3.57282535e+02
509             	3.57299398e+02
510             	3.57316235e+02
511             	3.57333047e+02
512             	3.57349942e+02
513             	3.57367088e+02
514             	3.57384638e+02
515             	3.57402181e+02
516             	3.57419773e+02
517             	3.57437292e+02
518             	3.57454769e+02
519             	3.57472468e+02
520             	3.57490141e+02
521             	3.57507643e+02
522             	3.57525119e+02
523             	3.57542468e+02
524             	3.57559359e+02
525             	3.57576133e+02
526             	3.57592768e+02
527             	3.57608736e+02
528             	3.57624244e+02
529             	3.57639400e+02
530             	3.57654288e+02
531             	3.57669039e+02
532             	3.57683655e+02
533             	3.57698234e+02
534             	3.57712793e+02
535             	3.57727332e+02
536             	3.57741839e+02
537             	3.57756322e+02
538             	3.57770816e+02
539             	3.57785372e+02
540             	3.57800058e+02
541             	3.57814977e+02
542             	3.57830228e+02
543             	3.57845618e+02
544             	3.57861042e+02
545             	3.57876502e+02
546             	3.57891960e+02
547             	3.57907437e+02
548             	3.57923067e+02
549             	3.57938783e+02
550             	3.57954484e+02
551             	3.57970255e+02
552             	3.57986138e+02
553             	3.58002132e+02
554             	3.58018248e+02
555             	3.58034449e+02
556             	3.58050627e+02
557             	3.58066645e+02
558             	3.58082369e+02
559             	3.58097707e+02
560             	3.58112624e+02
561             	3.58127079e+02
562             	3.58141119e+02
563             	3.58154730e+02
564             	3.58168080e+02
565             	3.58181237e+02
566             	3.58194221e+02
567             	3.58207031e+02
568             	3.58219791e+02
569             	3.58232620e+02
570             	3.58245646e+02
571             	3.58259137e+02
572             	3.58272853e+02
573             	3.58286529e+02
574             	3.58300217e+02
575             	3.58313871e+02
576             	3.58327482e+02
577             	3.58341261e+02
578             	3.58355032e+02
579             	3.58368835e+02
580             	3.58382574e+02
581             	3.58396295e+02
582             	3.58410076e+02
583             	3.58423844e+02
584             	3.58437476e+02
585             	3.58450879e+02
586             	3.58463939e+02
587             	3.58476543e+02
588             	3.58488685e+02
589             	3.58500879e+02
590             	3.58512905e+02
591             	3.58524693e+02
592             	3.58536421e+02
593             	3.58547939e+02
594             	3.58559292e+02
595             	3.58570574e+02
596             	3.58581885e+02
597             	3.58593329e+02
598             	3.58604949e+02
599             	3.58616722e+02
600             	3.58628738e+02
601             	3.58641090e+02
602             	3.58653877e+02
603             	3.58667031e+02
604             	3.58680283e+02
605             	3.58693611e+02
606             	3.58706971e+02
607             	3.58720341e+02
608             	3.58733709e+02
609             	3.58746976e+02
610             	3.58759931e+02
611             	3.58772375e+02
612             	3.58784316e+02
613             	3.58795902e+02
614             	3.58807285e+02
615             	3.58818502e+02
616             	3.58829681e+02
617             	3.58840992e+02
618             	3.58852734e+02
619             	3.58864603e+02
620             	3.58876327e+02
621             	3.58888059e+02
622             	3.58899763e+02
623             	3.58911409e+02
624             	3.58923083e+02
625             	3.58934773e+02
626             	3.58946491e+02
627             	3.58958300e+02
628             	3.58970226e+02
629             	3.58982266e+02
630             	3.58994355e+02
631             	3.59006463e+02
632             	3.59018242e+02
633             	3.59029511e+02
634             	3.59040139e+02
635             	3.59050434e+02
636             	3.59060716e+02
637             	3.59070820e+02
638             	3.59080704e+02
639             	3.59090489e+02
640             	3.59100296e+02
641             	3.59110215e+02
642             	3.59120367e+02
643             	3.59130812e+02
644             	3.59141479e+02
645             	3.59152355e+02
646             	3.59163254e+02
647             	3.59174196e+02
648             	3.59185100e+02
649             	3.59195835e+02
650             	3.59206283e+02
651             	3.59216421e+02
652             	3.59226250e+02
653             	3.59235771e+02
654             	3.59245009e+02
655             	3.59254003e+02
656             	3.59262904e+02
657             	3.59271741e+02
658             	3.59280666e+02
659             	3.59289634e+02
660             	3.59298717e+02
661             	3.59307978e+02
662             	3.59317308e+02
663             	3.59326996e+02
664             	3.59337368e+02
665             	3.59347853e+02
666             	3.59358324e+02
667             	3.59368803e+02
668             	3.59379290e+02
669             	3.59389794e+02
670             	3.59400277e+02
671             	3.59410807e+02
672             	3.59421401e+02
673             	3.59432091e+02
674             	3.59442906e+02
675             	3.59453818e+02
676             	3.59464859e+02
677             	3.59475927e+02
678             	3.59486865e+02
679             	3.59497771e+02
680             	3.59508571e+02
681             	3.59519473e+02
682             	3.59530454e+02
683             	3.59541196e+02
684             	3.59551881e+02
685             	3.59562552e+02
686             	3.59573176e+02
687             	3.59583751e+02
688             	3.59594612e+02
689             	3.59605445e+02
690             	3.59616288e+02
691             	3.59627268e+02
692             	3.59638340e+02
693             	3.59649179e+02
694             	3.59659466e+02
695             	3.59670016e+02
696             	3.59680119e+02
697             	3.59689835e+02
698             	3.59699206e+02
699             	3.59708323e+02
700             	3.59717250e+02
701             	3.59726059e+02
702             	3.59734834e+02
703             	3.59743727e+02
704             	3.59752921e+02
705             	3.59762676e+02
706             	3.59772650e+02
707             	3.59782591e+02
708             	3.59792802e+02
709             	3.59802836e+02
710             	3.59812790e+02
711             	3.59822759e+02
712             	3.59832818e+02
713             	3.59842939e+02
714             	3.59853078e+02
715             	3.59863218e+02
716             	3.59872987e+02
717             	3.59882039e+02
718             	3.59890241e+02
719             	3.59897878e+02
720             	3.59904859e+02
721             	3.59911374e+02
722             	3.59918778e+02
723             	3.59925532e+02
724             	3.59932318e+02
725             	3.59939298e+02
726             	3.59946507e+02
727             	3.59953901e+02
728             	3.59961464e+02
729             	3.59969512e+02
730             	3.59977959e+02
731             	3.59986694e+02
732             	3.59995392e+02
733             	3.60003992e+02
734             	3.60012113e+02
735             	3.60019794e+02
736             	3.60027183e+02
737             	3.60034313e+02
738             	3.60041389e+02
739             	3.60048454e+02
740             	3.60055589e+02
741             	3.60062911e+02
742             	3.60070607e+02
743             	3.60078697e+02
744             	3.60087431e+02
745             	3.60096748e+02
746             	3.60106094e+02
747             	3.60115512e+02
748             	3.60124922e+02
749             	3.60134581e+02
750             	3.60144482e+02
751             	3.60154232e+02
752             	3.60163981e+02
753             	3.60173591e+02
754             	3.60182696e+02
755             	3.60191420e+02
756             	3.60199816e+02
757             	3.60207586e+02
758             	3.60215163e+02
759             	3.60222736e+02
760             	3.60230495e+02
761             	3.60238623e+02
762             	3.60247075e+02
763             	3.60255615e+02
764             	3.60264160e+02
765             	3.60272774e+02
766             	3.60281385e+02
767             	3.60289831e+02
768             	3.60297925e+02
769             	3.60305305e+02
770             	3.60311954e+02
771             	3.60318428e+02
772             	3.60324386e+02
773             	3.60330572e+02
774             	3.60337145e+02
775             	3.60343428e+02
776             	3.60349669e+02
777             	3.60356105e+02
778             	3.60362862e+02
779             	3.60370183e+02
780             	3.60377970e+02
781             	3.60385961e+02
782             	3.60394028e+02
783             	3.60402201e+02
784             	3.60410212e+02
785             	3.60417821e+02
786             	3.60425249e+02
787             	3.60432820e+02
788             	3.60440105e+02
789             	3.60447088e+02
790             	3.60453944e+02
791             	3.60460816e+02
792             	3.60467796e+02
793             	3.60475003e+02
794             	3.60482683e+02
795             	3.60490679e+02
796             	3.60499007e+02
797             	3.60507569e+02
798             	3.60516188e+02
799             	3.60524750e+02
800             	3.60533214e+02
801             	3.60541511e+02
802             	3.60549426e+02
803             	3.60556954e+02
804             	3.60564020e+02
805             	3.60570688e+02
806             	3.60577070e+02
807             	3.60583235e+02
808             	3.60589317e+02
809             	3.60595490e+02
810             	3.60601718e+02
811             	3.60608072e+02
812             	3.60614762e+02
813             	3.60622046e+02
814             	3.60629481e+02
815             	3.60636915e+02
816             	3.60644392e+02
817             	3.60651895e+02
818             	3.60659605e+02
819             	3.60667605e+02
820             	3.60675429e+02
821             	3.60683235e+02
822             	3.60691095e+02
823             	3.60699035e+02
824             	3.60707096e+02
825             	3.60715170e+02
826             	3.60723283e+02
827             	3.60731490e+02
828             	3.60739816e+02
829             	3.60747900e+02
830             	3.60755011e+02
831             	3.60761781e+02
832             	3.60768038e+02
833             	3.60773710e+02
834             	3.60780061e+02
835             	3.60786075e+02
836             	3.60792042e+02
837             	3.60798187e+02
838             	3.60804392e+02
839             	3.60810703e+02
840             	3.60817443e+02
841             	3.60824641e+02
842             	3.60832383e+02
843             	3.60840255e+02
844             	3.60848212e+02
845             	3.60856237e+02
846             	3.60864295e+02
847             	3.60872357e+02
848             	3.60880380e+02
849             	3.60888319e+02
850             	3.60896120e+02
851             	3.60904047e+02
852             	3.60911454e+02
853             	3.60918891e+02
854             	3.60926112e+02
855             	3.60932816e+02
856             	3.60938755e+02
857             	3.60944330e+02
858             	3.60949377e+02
859             	3.60954533e+02
860             	3.60959752e+02
861             	3.60964695e+02
862             	3.60969437e+02
863             	3.60974143e+02
864             	3.60979054e+02
865             	3.60984273e+02
866             	3.60990340e+02
867             	3.60996123e+02
868             	3.61002099e+02
869             	3.61008415e+02
870             	3.61015026e+02
871             	3.61021754e+02
872             	3.61028730e+02
873             	3.61035846e+02
874             	3.61043154e+02
875             	3.61050646e+02
876             	3.61057876e+02
877             	3.61064567e+02
878             	3.61070933e+02
879             	3.61076844e+02
880             	3.61082490e+02
881             	3.61087763e+02
882             	3.61092810e+02
883             	3.61097783e+02
884             	3.61102856e+02
885             	3.61108101e+02
886             	3.61113592e+02
887             	3.61119473e+02
888             	3.61125586e+02
889             	3.61132204e+02
890             	3.61139106e+02
891             	3.61146353e+02
892             	3.61153653e+02
893             	3.61160945e+02
894             	3.61168252e+02
895             	3.61175471e+02
896             	3.61182440e+02
897             	3.61188953e+02
898             	3.61194915e+02
899             	3.61200355e+02
900             	3.61205413e+02
901             	3.61210230e+02
902             	3.61214929e+02
903             	3.61219578e+02
904             	3.61224240e+02
905             	3.61228971e+02
906             	3.61233925e+02
907             	3.61239327e+02
908             	3.61245306e+02
909             	3.61251406e+02
910             	3.61257545e+02
911             	3.61263755e+02
912             	3.61270041e+02
913             	3.61276399e+02
914             	3.61282825e+02
915             	3.61289546e+02
916             	3.61296384e+02
917             	3.61303166e+02
918             	3.61310032e+02
919             	3.61316836e+02
920             	3.61323652e+02
921             	3.61330483e+02
922             	3.61337382e+02
923             	3.61344437e+02
924             	3.61351250e+02
925             	3.61357309e+02
926             	3.61363266e+02
927             	3.61368701e+02
928             	3.61373447e+02
929             	3.61378624e+02
930             	3.61383884e+02
931             	3.61389105e+02
932             	3.61394214e+02
933             	3.61399361e+02