# Region        : cellZone fluid
# Cells         : 7927
# Volume        : 1.56204850e+01
# Time          	volAverage(T)
1               	2.99999664e+02
2               	2.99999599e+02
3               	2.99999723e+02
4               	2.99999914e+02
5               	3.00000103e+02
6               	3.00000332e+02
7               	3.00000622e+02
8               	3.00000938e+02
9               	3.00001173e+02
10              	3.00001450e+02
11              	3.00001801e+02
12              	3.00002190e+02
13              	3.00002614e+02
14              	3.00003086e+02
15              	3.00003747e+02
16              	3.00004274e+02
17              	3.00004784e+02
18              	3.00005324e+02
19              	3.00005898e+02
20              	3.00006520e+02
21              	3.00007139e+02
22              	3.00007891e+02
23              	3.00008733e+02
24              	3.00009411e+02
25              	3.00010160e+02
26              	3.00010895e+02
27              	3.00011701e+02
28              	3.00012352e+02
29              	3.00012975e+02
30              	3.00013493e+02
31              	3.00014039e+02
32              	3.00014591e+02
33              	3.00015240e+02
34              	3.00015783e+02
35              	3.00016523e+02
36              	3.00017333e+02
37              	3.00018143e+02
38              	3.00018920e+02
39              	3.00019754e+02
40              	3.00020646e+02
41              	3.00021402e+02
42              	3.00022333e+02
43              	3.00023200e+02
44              	3.00024215e+02
45              	3.00025154e+02
46              	3.00026078e+02
47              	3.00027345e+02
48              	3.00028421e+02
49              	3.00029410e+02
50              	3.00030410e+02
51              	3.00031481e+02
52              	3.00032385e+02
53              	3.00033627e+02
54              	3.00034597e+02
55              	3.00035719e+02
56              	3.00036505e+02
57              	3.00037254e+02
58              	3.00038334e+02
59              	3.00039229e+02
60              	3.00040094e+02
61              	3.00040964e+02
62              	3.00042032e+02
63              	3.00043160e+02
64              	3.00044664e+02
65              	3.00045618e+02
66              	3.00046655e+02
67              	3.00047782e+02
68              	3.00048730e+02
69              	3.00049741e+02
70              	3.00050523e+02
71              	3.00051150e+02
72              	3.00052319e+02
73              	3.00053730e+02
74              	3.00055121e+02
75              	3.00056069e+02
76              	3.00056946e+02
77              	3.00057795e+02
78              	3.00058526e+02
79              	3.00059225e+02
80              	3.00059964e+02
81              	3.00060653e+02
82              	3.00061364e+02
83              	3.00062156e+02
84              	3.00063353e+02
85              	3.00064555e+02
86              	3.00065787e+02
87              	3.00067090e+02
88              	3.00068550e+02
89              	3.00069532e+02
90              	3.00070414e+02
91              	3.00071159e+02
92              	3.00071640e+02
93              	3.00072298e+02
94              	3.00073190e+02
95              	3.00073936e+02
96              	3.00074536e+02
97              	3.00075554e+02
98              	3.00076210e+02
99              	3.00077600e+02
100             	3.00078126e+02
101             	3.00078818e+02
102             	3.00079426e+02
103             	3.00080014e+02
104             	3.00081146e+02
105             	3.00082479e+02
106             	3.00083436e+02
107             	3.00084545e+02
108             	3.00085615e+02
109             	3.00085879e+02
110             	3.00086802e+02
111             	3.00087713e+02
112             	3.00088532e+02
113             	3.00089153e+02
114             	3.00089727e+02
115             	3.00090162e+02
116             	3.00090635e+02
117             	3.00091284e+02
118             	3.00092084e+02
119             	3.00092648e+02
120             	3.00093169e+02
121             	3.00093609e+02
122             	3.00094175e+02
123             	3.00094862e+02
124             	3.00095503e+02
125             	3.00096126e+02
126             	3.00096723e+02
127             	3.00097383e+02
128             	3.00098005e+02
129             	3.00098547e+02
130             	3.00099269e+02
131             	3.00100199e+02
132             	3.00101348e+02
133             	3.00102450e+02
134             	3.00103533e+02
135             	3.00104125e+02
136             	3.00104684e+02
137             	3.00105210e+02
138             	3.00105608e+02
139             	3.00106106e+02
140             	3.00106822e+02
141             	3.00107452e+02
142             	3.00107978e+02
143             	3.00108551e+02
144             	3.00109086e+02
145             	3.00109739e+02
146             	3.00110578e+02
147             	3.00111207e+02
148             	3.00111965e+02
149             	3.00112741e+02
150             	3.00113814e+02
151             	3.00114895e+02
152             	3.00115828e+02
153             	3.00116492e+02
154             	3.00117387e+02
155             	3.00118490e+02
156             	3.00119510e+02
157             	3.00120339e+02
158             	3.00120986e+02
159             	3.00121669e+02
160             	3.00122146e+02
161             	3.00122589e+02
162             	3.00122796e+02
163             	3.00122911e+02
164             	3.00123267e+02
165             	3.00123884e+02
166             	3.00124293e+02
167             	3.00124886e+02
168             	3.00125380e+02
169             	3.00125718e+02
170             	3.00126064e+02
171             	3.00126455e+02
172             	3.00126669e+02
173             	3.00127002e+02
174             	3.00127405e+02
175             	3.00127797e+02
176             	3.00127552e+02
177             	3.00128088e+02
178             	3.00128458e+02
179             	3.00128916e+02
180             	3.00129157e+02
181             	3.00129182e+02
182             	3.00129115e+02
183             	3.00129211e+02
184             	3.00130563e+02
185             	3.00130697e+02
186             	3.00131274e+02
187             	3.00132000e+02
188             	3.00132709e+02
189             	3.00133320e+02
190             	3.00134480e+02
191             	3.00134834e+02
192             	3.00135515e+02
193             	3.00136698e+02
194             	3.00137365e+02
195             	3.00138108e+02
196             	3.00138806e+02
197             	3.00139158e+02
198             	3.00139659e+02
199             	3.00140091e+02
200             	3.00140312e+02
201             	3.00140620e+02
202             	3.00140853e+02
203             	3.00141144e+02
204             	3.00141892e+02
205             	3.00142052e+02
206             	3.00142217e+02
207             	3.00142569e+02
208             	3.00143012e+02
209             	3.00143557e+02
210             	3.00144221e+02
211             	3.00144821e+02
212             	3.00145621e+02
213             	3.00146248e+02
214             	3.00146810e+02
215             	3.00147036e+02
216             	3.00147113e+02
217             	3.00147345e+02
218             	3.00147465e+02
219             	3.00147746e+02
220             	3.00147792e+02
221             	3.00147708e+02
222             	3.00147736e+02
223             	3.00147677e+02
224             	3.00147613e+02
225             	3.00147772e+02
226             	3.00147947e+02
227             	3.00148205e+02
228             	3.00148445e+02
229             	3.00148756e+02
230             	3.00149538e+02
231             	3.00149907e+02
232             	3.00150256e+02
233             	3.00150659e+02
234             	3.00151080e+02
235             	3.00151486e+02
236             	3.00152166e+02
237             	3.00152867e+02
238             	3.00153252e+02
239             	3.00154206e+02
240             	3.00155049e+02
241             	3.00155872e+02
242             	3.00156063e+02
243             	3.00156628e+02
244             	3.00156746e+02
245             	3.00156670e+02
246             	3.00156399e+02
247             	3.00156196e+02
248             	3.00155985e+02
249             	3.00156107e+02
250             	3.00156067e+02
251             	3.00156284e+02
252             	3.00156623e+02
253             	3.00156760e+02
254             	3.00156703e+02
255             	3.00156681e+02
256             	3.00156828e+02
257             	3.00157014e+02
258             	3.00157077e+02
259             	3.00157166e+02
260             	3.00157266e+02
261             	3.00157271e+02
262             	3.00157348e+02
263             	3.00157405e+02
264             	3.00157508e+02
265             	3.00157616e+02
266             	3.00157135e+02
267             	3.00157229e+02
268             	3.00157197e+02
269             	3.00157099e+02
270             	3.00156932e+02
271             	3.00156717e+02
272             	3.00156500e+02
273             	3.00156481e+02
274             	3.00156992e+02
275             	3.00156910e+02
276             	3.00156982e+02
277             	3.00157132e+02
278             	3.00157160e+02
279             	3.00157342e+02
280             	3.00157654e+02
281             	3.00158016e+02
282             	3.00158340e+02
283             	3.00158222e+02
284             	3.00158378e+02
285             	3.00158739e+02
286             	3.00158919e+02
287             	3.00159000e+02
288             	3.00159338e+02
289             	3.00159365e+02
290             	3.00159387e+02
291             	3.00159261e+02
292             	3.00159108e+02
293             	3.00159090e+02
294             	3.00159406e+02
295             	3.00159372e+02
296             	3.00159466e+02
297             	3.00159690e+02
298             	3.00159981e+02
299             	3.00160330e+02
300             	3.00160676e+02
301             	3.00160925e+02
302             	3.00161109e+02
303             	3.00161215e+02
304             	3.00161131e+02
305             	3.00160994e+02
306             	3.00161038e+02
307             	3.00160929e+02
308             	3.00160761e+02
309             	3.00160676e+02
310             	3.00161050e+02
311             	3.00161240e+02
312             	3.00161360e+02
313             	3.00161508e+02
314             	3.00161732e+02
315             	3.00162046e+02
316             	3.00162371e+02
317             	3.00162785e+02
318             	3.00163026e+02
319             	3.00163122e+02
320             	3.00163486e+02
321             	3.00164020e+02
322             	3.00164427e+02
323             	3.00164664e+02
324             	3.00164784e+02
325             	3.00164774e+02
326             	3.00164807e+02
327             	3.00164858e+02
328             	3.00165114e+02
329             	3.00165249e+02
330             	3.00164946e+02
331             	3.00164902e+02
332             	3.00164909e+02
333             	3.00165010e+02
334             	3.00165061e+02
335             	3.00165190e+02
336             	3.00165179e+02
337             	3.00165509e+02
338             	3.00165171e+02
339             	3.00165476e+02
340             	3.00165383e+02
341             	3.00165380e+02
342             	3.00165322e+02
343             	3.00165255e+02
344             	3.00165121e+02
345             	3.00164977e+02
346             	3.00164714e+02
347             	3.00164511e+02
348             	3.00164337e+02
349             	3.00164685e+02
350             	3.00164580e+02
351             	3.00164684e+02
352             	3.00164900e+02
353             	3.00165133e+02
354             	3.00165426e+02
355             	3.00165746e+02
356             	3.00166084e+02
357             	3.00166447e+02
358             	3.00166828e+02
359             	3.00167209e+02
360             	3.00167578e+02
361             	3.00167799e+02
362             	3.00168136e+02
363             	3.00168407e+02
364             	3.00168695e+02
365             	3.00168794e+02
366             	3.00169023e+02
367             	3.00168948e+02
368             	3.00169041e+02
369             	3.00169100e+02
370             	3.00169044e+02
371             	3.00168996e+02
372             	3.00168911e+02
373             	3.00168830e+02
374             	3.00168743e+02
375             	3.00168599e+02
376             	3.00168420e+02
377             	3.00168290e+02
378             	3.00168148e+02
379             	3.00168040e+02
380             	3.00168068e+02
381             	3.00168579e+02
382             	3.00168405e+02
383             	3.00168335e+02
384             	3.00168324e+02
385             	3.00168424e+02
386             	3.00168412e+02
387             	3.00168247e+02
388             	3.00168496e+02
389             	3.00168696e+02
390             	3.00168807e+02
391             	3.00168877e+02
392             	3.00168922e+02
393             	3.00168780e+02
394             	3.00168573e+02
395             	3.00168274e+02
396             	3.00167948e+02
397             	3.00167646e+02
398             	3.00167940e+02
399             	3.00167898e+02
400             	3.00167840e+02
401             	3.00167986e+02
402             	3.00168209e+02
403             	3.00168462e+02
404             	3.00168557e+02
405             	3.00168794e+02
406             	3.00169076e+02
407             	3.00169304e+02
408             	3.00168981e+02
409             	3.00169125e+02
410             	3.00169190e+02
411             	3.00169120e+02
412             	3.00168964e+02
413             	3.00168851e+02
414             	3.00168694e+02
415             	3.00168813e+02
416             	3.00169283e+02
417             	3.00169017e+02
418             	3.00168873e+02
419             	3.00168817e+02
420             	3.00169049e+02
421             	3.00169278e+02
422             	3.00169017e+02
423             	3.00169165e+02
424             	3.00169589e+02
425             	3.00169805e+02
426             	3.00169825e+02
427             	3.00169789e+02
428             	3.00169790e+02
429             	3.00169731e+02
430             	3.00169545e+02
431             	3.00169409e+02
432             	3.00169356e+02
433             	3.00169731e+02
434             	3.00169468e+02
435             	3.00169348e+02
436             	3.00169283e+02
437             	3.00169290e+02
438             	3.00169357e+02
439             	3.00169494e+02
440             	3.00169439e+02
441             	3.00169866e+02
442             	3.00170065e+02
443             	3.00170258e+02
444             	3.00170571e+02
445             	3.00170823e+02
446             	3.00170920e+02
447             	3.00170953e+02
448             	3.00170950e+02
449             	3.00170946e+02
450             	3.00170948e+02
451             	3.00171089e+02
452             	3.00171854e+02
453             	3.00171961e+02
454             	3.00172314e+02
455             	3.00172789e+02
456             	3.00173301e+02
457             	3.00173588e+02
458             	3.00173873e+02
459             	3.00174398e+02
460             	3.00174474e+02
461             	3.00174319e+02
462             	3.00174713e+02
463             	3.00174808e+02
464             	3.00174895e+02
465             	3.00174705e+02
466             	3.00175193e+02
467             	3.00175467e+02
468             	3.00175288e+02
469             	3.00175201e+02
470             	3.00175226e+02
471             	3.00175197e+02
472             	3.00175198e+02
473             	3.00175288e+02
474             	3.00175479e+02
475             	3.00175404e+02
476             	3.00175662e+02
477             	3.00175378e+02
478             	3.00175540e+02
479             	3.00175317e+02
480             	3.00175324e+02
481             	3.00175248e+02
482             	3.00175128e+02
483             	3.00174891e+02
484             	3.00174567e+02
485             	3.00174254e+02
486             	3.00174318e+02
487             	3.00174456e+02
488             	3.00174236e+02
489             	3.00174343e+02
490             	3.00174737e+02
491             	3.00175260e+02
492             	3.00175378e+02
493             	3.00175769e+02
494             	3.00175945e+02
495             	3.00176393e+02
496             	3.00176605e+02
497             	3.00176759e+02
498             	3.00176873e+02
499             	3.00176830e+02
500             	3.00176909e+02
501             	3.00177065e+02
502             	3.00177002e+02
503             	3.00177282e+02
504             	3.00177151e+02
505             	3.00177030e+02
506             	3.00176940e+02
507             	3.00176826e+02
508             	3.00176690e+02
509             	3.00176655e+02
510             	3.00176685e+02
511             	3.00176743e+02
512             	3.00176526e+02
513             	3.00176691e+02
514             	3.00176208e+02
515             	3.00176378e+02
516             	3.00176171e+02
517             	3.00176058e+02
518             	3.00175796e+02
519             	3.00175437e+02
520             	3.00175035e+02
521             	3.00174701e+02
522             	3.00174516e+02
523             	3.00174656e+02
524             	3.00174893e+02
525             	3.00174766e+02
526             	3.00174820e+02
527             	3.00175062e+02
528             	3.00175254e+02
529             	3.00175645e+02
530             	3.00175784e+02
531             	3.00175763e+02
532             	3.00175833e+02
533             	3.00176252e+02
534             	3.00176504e+02
535             	3.00176756e+02
536             	3.00176820e+02
537             	3.00176980e+02
538             	3.00177170e+02
539             	3.00177013e+02
540             	3.00176889e+02
541             	3.00176893e+02
542             	3.00177234e+02
543             	3.00177049e+02
544             	3.00177002e+02
545             	3.00176983e+02
546             	3.00177021e+02
547             	3.00177064e+02
548             	3.00176776e+02
549             	3.00176993e+02
550             	3.00176979e+02
551             	3.00176980e+02
552             	3.00176780e+02
553             	3.00176595e+02
554             	3.00176285e+02
555             	3.00176121e+02
556             	3.00175843e+02
557             	3.00175548e+02
558             	3.00175323e+02
559             	3.00175173e+02
560             	3.00175034e+02
561             	3.00175060e+02
562             	3.00175053e+02
563             	3.00175176e+02
564             	3.00175205e+02
565             	3.00175113e+02
566             	3.00175248e+02
567             	3.00175341e+02
568             	3.00175505e+02
569             	3.00175759e+02
570             	3.00176184e+02
571             	3.00176639e+02
572             	3.00176764e+02
573             	3.00176592e+02
574             	3.00177090e+02
575             	3.00177398e+02
576             	3.00177580e+02
577             	3.00177658e+02
578             	3.00177605e+02
579             	3.00177347e+02
580             	3.00177069e+02
581             	3.00177120e+02
582             	3.00177419e+02
583             	3.00177130e+02
584             	3.00177041e+02
585             	3.00177046e+02
586             	3.00177083e+02
587             	3.00177255e+02
588             	3.00177330e+02
589             	3.00177174e+02
590             	3.00177398e+02
591             	3.00177044e+02
592             	3.00177044e+02
593             	3.00176884e+02
594             	3.00176717e+02
595             	3.00176464e+02
596             	3.00176146e+02
597             	3.00176094e+02
598             	3.00175721e+02
599             	3.00175424e+02
600             	3.00175178e+02
601             	3.00174956e+02
602             	3.00174719e+02
603             	3.00174624e+02
604             	3.00174676e+02
605             	3.00174501e+02
606             	3.00174380e+02
607             	3.00174436e+02
608             	3.00174632e+02
609             	3.00174923e+02
610             	3.00174663e+02
611             	3.00175034e+02
612             	3.00175560e+02
613             	3.00175891e+02
614             	3.00175926e+02
615             	3.00175881e+02
616             	3.00175933e+02
617             	3.00175860e+02
618             	3.00175754e+02
619             	3.00175690e+02
620             	3.00175716e+02
621             	3.00175642e+02
622             	3.00175522e+02
623             	3.00175458e+02
624             	3.00175535e+02
625             	3.00175685e+02
626             	3.00176034e+02
627             	3.00176176e+02
628             	3.00176496e+02
629             	3.00176691e+02
630             	3.00177051e+02
631             	3.00177227e+02
632             	3.00177299e+02
633             	3.00177218e+02
634             	3.00177081e+02
635             	3.00177203e+02
636             	3.00177358e+02
637             	3.00177422e+02
638             	3.00177486e+02
639             	3.00177486e+02
640             	3.00177632e+02
641             	3.00177883e+02
642             	3.00177751e+02
643             	3.00177964e+02
644             	3.00177894e+02
645             	3.00177382e+02
646             	3.00177412e+02
647             	3.00177267e+02
648             	3.00177008e+02
649             	3.00176964e+02
650             	3.00176892e+02
651             	3.00176662e+02
652             	3.00176517e+02
653             	3.00176358e+02
654             	3.00176161e+02
655             	3.00176020e+02
656             	3.00175895e+02
657             	3.00175805e+02
658             	3.00175773e+02
659             	3.00175981e+02
660             	3.00175857e+02
661             	3.00175861e+02
662             	3.00175728e+02
663             	3.00175724e+02
664             	3.00175785e+02
665             	3.00175766e+02
666             	3.00175925e+02
667             	3.00176216e+02
668             	3.00175783e+02
669             	3.00175831e+02
670             	3.00175898e+02
671             	3.00175860e+02
672             	3.00175644e+02
673             	3.00175412e+02
674             	3.00175221e+02
675             	3.00174990e+02
676             	3.00174738e+02
677             	3.00174456e+02
678             	3.00174400e+02
679             	3.00174376e+02
680             	3.00174320e+02
681             	3.00174361e+02
682             	3.00174513e+02
683             	3.00174758e+02
684             	3.00175042e+02
685             	3.00175032e+02
686             	3.00175137e+02
687             	3.00175258e+02
688             	3.00175415e+02
689             	3.00175567e+02
690             	3.00175897e+02
691             	3.00176241e+02
692             	3.00176397e+02
693             	3.00176514e+02
694             	3.00176860e+02
695             	3.00177007e+02
696             	3.00176811e+02
697             	3.00177067e+02
698             	3.00177015e+02
699             	3.00177106e+02
700             	3.00176953e+02
701             	3.00176851e+02
702             	3.00176736e+02
703             	3.00176530e+02
704             	3.00176257e+02
705             	3.00175975e+02
706             	3.00175744e+02
707             	3.00175828e+02
708             	3.00175612e+02
709             	3.00175531e+02
710             	3.00175377e+02
711             	3.00175294e+02
712             	3.00175255e+02
713             	3.00175349e+02
714             	3.00175238e+02
715             	3.00175212e+02
716             	3.00175308e+02
717             	3.00175423e+02
718             	3.00175344e+02
719             	3.00175423e+02
720             	3.00175385e+02
721             	3.00175529e+02
722             	3.00175648e+02
723             	3.00175498e+02
724             	3.00175459e+02
725             	3.00175425e+02
726             	3.00175260e+02
727             	3.00175131e+02
728             	3.00175050e+02
729             	3.00174950e+02
730             	3.00174804e+02
731             	3.00174698e+02
732             	3.00174674e+02
733             	3.00174528e+02
734             	3.00174536e+02
735             	3.00174598e+02
736             	3.00174582e+02
737             	3.00174653e+02
738             	3.00174725e+02
739             	3.00174762e+02
740             	3.00174745e+02
741             	3.00174904e+02
742             	3.00174849e+02
743             	3.00175100e+02
744             	3.00175109e+02
745             	3.00175128e+02
746             	3.00175196e+02
747             	3.00175379e+02
748             	3.00175371e+02
749             	3.00175383e+02
750             	3.00175404e+02
751             	3.00175457e+02
752             	3.00175315e+02
753             	3.00175454e+02
754             	3.00175459e+02
755             	3.00175497e+02
756             	3.00175534e+02
757             	3.00175219e+02
758             	3.00175341e+02
759             	3.00175412e+02
760             	3.00175392e+02
761             	3.00175240e+02
762             	3.00175156e+02
763             	3.00175031e+02
764             	3.00174852e+02
765             	3.00174792e+02
766             	3.00175128e+02
767             	3.00175093e+02
768             	3.00175242e+02
769             	3.00175399e+02
770             	3.00175424e+02
771             	3.00175779e+02
772             	3.00176145e+02
773             	3.00176367e+02
774             	3.00176735e+02
775             	3.00177111e+02
776             	3.00177420e+02
777             	3.00177441e+02
778             	3.00177803e+02
779             	3.00177953e+02
780             	3.00178117e+02
781             	3.00178111e+02
782             	3.00177914e+02
783             	3.00177911e+02
784             	3.00177787e+02
785             	3.00177622e+02
786             	3.00177469e+02
787             	3.00177244e+02
788             	3.00176992e+02
789             	3.00176794e+02
790             	3.00176711e+02
791             	3.00176852e+02
792             	3.00176612e+02
793             	3.00176644e+02
794             	3.00176624e+02
795             	3.00176705e+02
796             	3.00176843e+02
797             	3.00176893e+02
798             	3.00177254e+02
799             	3.00177414e+02
800             	3.00177586e+02
801             	3.00177650e+02
802             	3.00177573e+02
803             	3.00177632e+02
804             	3.00177573e+02
805             	3.00177585e+02
806             	3.00177687e+02
807             	3.00177788e+02
808             	3.00177828e+02
809             	3.00177611e+02
810             	3.00177599e+02
811             	3.00177486e+02
812             	3.00177334e+02
813             	3.00177187e+02
814             	3.00177069e+02
815             	3.00176980e+02
816             	3.00176743e+02
817             	3.00176661e+02
818             	3.00176408e+02
819             	3.00176291e+02
820             	3.00176246e+02
821             	3.00176143e+02
822             	3.00176125e+02
823             	3.00176116e+02
824             	3.00176234e+02
825             	3.00176231e+02
826             	3.00176349e+02
827             	3.00176271e+02
828             	3.00176053e+02
829             	3.00175815e+02
830             	3.00175569e+02
831             	3.00175534e+02
832             	3.00175277e+02
833             	3.00175081e+02
834             	3.00174995e+02
835             	3.00174962e+02
836             	3.00175014e+02
837             	3.00175226e+02
838             	3.00175595e+02
839             	3.00175549e+02
840             	3.00175653e+02
841             	3.00176001e+02
842             	3.00176216e+02
843             	3.00176403e+02
844             	3.00176559e+02
845             	3.00176724e+02
846             	3.00176911e+02
847             	3.00177013e+02
848             	3.00177373e+02
849             	3.00177689e+02
850             	3.00177895e+02
851             	3.00178133e+02
852             	3.00178339e+02
853             	3.00178543e+02
854             	3.00178443e+02
855             	3.00178484e+02
856             	3.00178544e+02
857             	3.00178614e+02
858             	3.00178652e+02
859             	3.00178620e+02
860             	3.00178593e+02
861             	3.00178510e+02
862             	3.00178417e+02
863             	3.00178352e+02
864             	3.00178345e+02
865             	3.00178360e+02
866             	3.00178454e+02
867             	3.00178646e+02
868             	3.00178810e+02
869             	3.00178969e+02
870             	3.00179204e+02
871             	3.00179415e+02
872             	3.00179574e+02
873             	3.00179572e+02
874             	3.00179707e+02
875             	3.00179670e+02
876             	3.00179796e+02
877             	3.00179944e+02
878             	3.00180125e+02
879             	3.00180345e+02
880             	3.00180598e+02
881             	3.00180866e+02
882             	3.00181157e+02
883             	3.00181477e+02
884             	3.00181699e+02
885             	3.00181811e+02
886             	3.00181899e+02
887             	3.00181837e+02
888             	3.00182114e+02
889             	3.00181977e+02
890             	3.00182068e+02
891             	3.00182021e+02
892             	3.00181911e+02
893             	3.00181813e+02
894             	3.00181718e+02
895             	3.00181588e+02
896             	3.00181524e+02
897             	3.00181447e+02
898             	3.00181393e+02
899             	3.00181291e+02
900             	3.00181202e+02
901             	3.00181115e+02
902             	3.00181021e+02
903             	3.00180911e+02
904             	3.00180723e+02
905             	3.00180741e+02
906             	3.00180694e+02
907             	3.00180520e+02
908             	3.00180518e+02
909             	3.00180549e+02
910             	3.00180614e+02
911             	3.00180753e+02
912             	3.00180850e+02
913             	3.00180914e+02
914             	3.00181082e+02
915             	3.00181220e+02
916             	3.00181282e+02
917             	3.00181328e+02
918             	3.00181539e+02
919             	3.00181496e+02
920             	3.00181590e+02
921             	3.00181707e+02
922             	3.00181824e+02
923             	3.00181748e+02
924             	3.00181673e+02
925             	3.00181618e+02
926             	3.00181585e+02
927             	3.00181528e+02
928             	3.00181487e+02
929             	3.00181216e+02
930             	3.00181245e+02
931             	3.00181189e+02
932             	3.00180832e+02
933             	3.00180740e+02