# Region        : cellZone fluid
# Cells         : 9606
# Volume        : 1.84857827e+01
# Time          	volAverage(T)
1               	3.00001271e+02
2               	3.00002109e+02
3               	3.00008417e+02
4               	3.00014356e+02
5               	3.00018052e+02
6               	3.00021042e+02
7               	3.00024425e+02
8               	3.00028246e+02
9               	3.00033611e+02
10              	3.00038580e+02
11              	3.00047354e+02
12              	3.00052759e+02
13              	3.00060098e+02
14              	3.00065560e+02
15              	3.00068924e+02
16              	3.00074492e+02
17              	3.00080425e+02
18              	3.00086834e+02
19              	3.00093047e+02
20              	3.00100054e+02
21              	3.00107387e+02
22              	3.00116445e+02
23              	3.00126064e+02
24              	3.00136486e+02
25              	3.00146149e+02
26              	3.00154590e+02
27              	3.00161321e+02
28              	3.00170862e+02
29              	3.00178933e+02
30              	3.00187640e+02
31              	3.00195993e+02
32              	3.00205487e+02
33              	3.00218187e+02
34              	3.00229791e+02
35              	3.00240418e+02
36              	3.00250257e+02
37              	3.00260723e+02
38              	3.00268817e+02
39              	3.00277355e+02
40              	3.00286059e+02
41              	3.00294131e+02
42              	3.00304702e+02
43              	3.00315468e+02
44              	3.00326699e+02
45              	3.00335733e+02
46              	3.00346756e+02
47              	3.00357401e+02
48              	3.00365214e+02
49              	3.00375756e+02
50              	3.00386106e+02
51              	3.00396514e+02
52              	3.00405773e+02
53              	3.00414383e+02
54              	3.00424063e+02
55              	3.00435782e+02
56              	3.00445838e+02
57              	3.00455328e+02
58              	3.00466549e+02
59              	3.00479212e+02
60              	3.00493530e+02
61              	3.00503069e+02
62              	3.00513793e+02
63              	3.00522717e+02
64              	3.00531256e+02
65              	3.00539503e+02
66              	3.00551998e+02
67              	3.00560251e+02
68              	3.00569126e+02
69              	3.00577554e+02
70              	3.00586808e+02
71              	3.00599779e+02
72              	3.00611980e+02
73              	3.00618121e+02
74              	3.00627154e+02
75              	3.00636482e+02
76              	3.00644507e+02
77              	3.00651183e+02
78              	3.00657604e+02
79              	3.00666887e+02
80              	3.00677344e+02
81              	3.00686204e+02
82              	3.00693291e+02
83              	3.00702479e+02
84              	3.00713720e+02
85              	3.00719200e+02
86              	3.00726183e+02
87              	3.00733436e+02
88              	3.00741473e+02
89              	3.00749047e+02
90              	3.00755784e+02
91              	3.00762431e+02
92              	3.00769771e+02
93              	3.00778227e+02
94              	3.00785596e+02
95              	3.00793246e+02
96              	3.00799574e+02
97              	3.00808403e+02
98              	3.00813802e+02
99              	3.00820113e+02
100             	3.00826944e+02
101             	3.00833807e+02
102             	3.00840198e+02
103             	3.00846960e+02
104             	3.00852934e+02
105             	3.00859481e+02
106             	3.00867452e+02
107             	3.00874727e+02
108             	3.00881275e+02
109             	3.00888204e+02
110             	3.00894256e+02
111             	3.00900132e+02
112             	3.00905876e+02
113             	3.00912483e+02
114             	3.00919519e+02
115             	3.00923312e+02
116             	3.00929231e+02
117             	3.00933950e+02
118             	3.00939250e+02
119             	3.00944841e+02
120             	3.00950082e+02
121             	3.00953806e+02
122             	3.00958782e+02
123             	3.00964237e+02
124             	3.00968732e+02
125             	3.00973053e+02
126             	3.00977023e+02
127             	3.00980699e+02
128             	3.00984436e+02
129             	3.00988423e+02
130             	3.00993216e+02
131             	3.00997826e+02
132             	3.01001800e+02
133             	3.01006362e+02
134             	3.01011067e+02
135             	3.01015214e+02
136             	3.01019596e+02
137             	3.01023342e+02
138             	3.01026759e+02
139             	3.01029774e+02
140             	3.01033892e+02
141             	3.01036942e+02
142             	3.01039232e+02
143             	3.01041396e+02
144             	3.01043790e+02
145             	3.01046332e+02
146             	3.01047998e+02
147             	3.01049448e+02
148             	3.01051385e+02
149             	3.01053158e+02
150             	3.01054624e+02
151             	3.01056396e+02
152             	3.01057995e+02
153             	3.01059969e+02
154             	3.01061829e+02
155             	3.01063529e+02
156             	3.01065717e+02
157             	3.01067774e+02
158             	3.01069690e+02
159             	3.01071626e+02
160             	3.01073805e+02
161             	3.01076228e+02
162             	3.01078342e+02
163             	3.01080038e+02
164             	3.01082038e+02
165             	3.01084045e+02
166             	3.01086078e+02
167             	3.01087666e+02
168             	3.01089376e+02
169             	3.01091211e+02
170             	3.01092877e+02
171             	3.01094278e+02
172             	3.01095575e+02
173             	3.01096738e+02
174             	3.01097924e+02
175             	3.01099068e+02
176             	3.01100331e+02
177             	3.01101374e+02
178             	3.01102442e+02
179             	3.01103873e+02
180             	3.01105247e+02
181             	3.01106474e+02
182             	3.01107545e+02
183             	3.01109412e+02
184             	3.01111099e+02
185             	3.01112663e+02
186             	3.01114208e+02
187             	3.01115743e+02
188             	3.01117285e+02
189             	3.01118674e+02
190             	3.01120084e+02
191             	3.01121392e+02
192             	3.01122947e+02
193             	3.01123877e+02
194             	3.01124913e+02
195             	3.01125984e+02
196             	3.01127113e+02
197             	3.01128309e+02
198             	3.01129394e+02
199             	3.01130493e+02
200             	3.01131554e+02
201             	3.01132778e+02
202             	3.01133941e+02
203             	3.01135139e+02
204             	3.01136360e+02
205             	3.01137612e+02
206             	3.01138734e+02
207             	3.01139797e+02
208             	3.01141087e+02
209             	3.01142300e+02
210             	3.01143458e+02
211             	3.01144587e+02
212             	3.01145772e+02
213             	3.01147150e+02
214             	3.01148578e+02
215             	3.01149868e+02
216             	3.01150931e+02
217             	3.01152119e+02
218             	3.01153188e+02
219             	3.01154371e+02
220             	3.01155173e+02
221             	3.01156016e+02
222             	3.01157114e+02
223             	3.01158237e+02
224             	3.01159167e+02
225             	3.01160086e+02
226             	3.01161094e+02
227             	3.01161995e+02
228             	3.01162793e+02
229             	3.01163674e+02
230             	3.01164633e+02
231             	3.01165514e+02
232             	3.01166470e+02
233             	3.01167376e+02
234             	3.01168308e+02
235             	3.01169216e+02
236             	3.01170179e+02
237             	3.01171032e+02
238             	3.01171937e+02
239             	3.01172919e+02
240             	3.01174015e+02
241             	3.01175098e+02
242             	3.01175974e+02
243             	3.01176987e+02
244             	3.01177843e+02
245             	3.01178599e+02
246             	3.01179442e+02
247             	3.01180283e+02
248             	3.01181063e+02
249             	3.01181850e+02
250             	3.01182668e+02
251             	3.01183561e+02
252             	3.01184408e+02
253             	3.01185223e+02
254             	3.01186040e+02
255             	3.01186849e+02
256             	3.01187652e+02
257             	3.01188362e+02
258             	3.01189091e+02
259             	3.01189796e+02
260             	3.01190489e+02
261             	3.01191199e+02
262             	3.01192014e+02
263             	3.01192787e+02
264             	3.01193634e+02
265             	3.01194345e+02
266             	3.01195171e+02
267             	3.01196014e+02
268             	3.01196744e+02
269             	3.01197403e+02
270             	3.01198101e+02
271             	3.01198815e+02
272             	3.01199612e+02
273             	3.01200278e+02
274             	3.01200960e+02
275             	3.01201674e+02
276             	3.01202415e+02
277             	3.01203016e+02
278             	3.01203678e+02
279             	3.01204339e+02
280             	3.01204983e+02
281             	3.01205626e+02
282             	3.01206312e+02
283             	3.01206988e+02
284             	3.01207651e+02
285             	3.01208311e+02
286             	3.01208964e+02
287             	3.01209597e+02
288             	3.01210230e+02
289             	3.01210918e+02
290             	3.01211577e+02
291             	3.01212226e+02
292             	3.01212863e+02
293             	3.01213528e+02
294             	3.01214198e+02
295             	3.01214857e+02
296             	3.01215495e+02
297             	3.01216113e+02
298             	3.01216716e+02
299             	3.01217298e+02
300             	3.01217861e+02
301             	3.01218407e+02
302             	3.01218948e+02
303             	3.01219517e+02
304             	3.01220085e+02
305             	3.01220593e+02
306             	3.01221131e+02
307             	3.01221683e+02
308             	3.01222242e+02
309             	3.01222808e+02
310             	3.01223376e+02
311             	3.01223946e+02
312             	3.01224494e+02
313             	3.01225034e+02
314             	3.01225550e+02
315             	3.01226106e+02
316             	3.01226640e+02
317             	3.01227143e+02
318             	3.01227677e+02
319             	3.01228188e+02
320             	3.01228693e+02
321             	3.01229212e+02
322             	3.01229726e+02
323             	3.01230257e+02
324             	3.01230744e+02
325             	3.01231192e+02
326             	3.01231664e+02
327             	3.01232136e+02
328             	3.01232606e+02
329             	3.01233077e+02
330             	3.01233515e+02
331             	3.01233942e+02
332             	3.01234398e+02
333             	3.01234838e+02
334             	3.01235264e+02
335             	3.01235681e+02
336             	3.01236092e+02
337             	3.01236514e+02
338             	3.01236931e+02
339             	3.01237340e+02
340             	3.01237755e+02
341             	3.01238171e+02
342             	3.01238596e+02
343             	3.01238998e+02
344             	3.01239383e+02
345             	3.01239782e+02
346             	3.01240185e+02
347             	3.01240583e+02
348             	3.01240977e+02
349             	3.01241373e+02
350             	3.01241760e+02
351             	3.01242129e+02
352             	3.01242496e+02
353             	3.01242882e+02
354             	3.01243250e+02
355             	3.01243602e+02
356             	3.01243949e+02
357             	3.01244300e+02
358             	3.01244629e+02
359             	3.01244969e+02
360             	3.01245290e+02
361             	3.01245616e+02
362             	3.01245941e+02
363             	3.01246266e+02
364             	3.01246587e+02
365             	3.01246912e+02
366             	3.01247233e+02
367             	3.01247548e+02
368             	3.01247863e+02
369             	3.01248179e+02
370             	3.01248490e+02
371             	3.01248800e+02
372             	3.01249107e+02
373             	3.01249413e+02
374             	3.01249716e+02
375             	3.01250009e+02
376             	3.01250300e+02
377             	3.01250593e+02
378             	3.01250884e+02
379             	3.01251166e+02
380             	3.01251444e+02
381             	3.01251721e+02
382             	3.01251995e+02
383             	3.01252263e+02
384             	3.01252523e+02
385             	3.01252788e+02
386             	3.01253050e+02
387             	3.01253303e+02
388             	3.01253559e+02
389             	3.01253805e+02
390             	3.01254051e+02
391             	3.01254295e+02
392             	3.01254546e+02
393             	3.01254788e+02
394             	3.01255031e+02
395             	3.01255274e+02
396             	3.01255518e+02
397             	3.01255760e+02
398             	3.01256013e+02
399             	3.01256259e+02
400             	3.01256500e+02
401             	3.01256741e+02
402             	3.01256979e+02
403             	3.01257195e+02
404             	3.01257420e+02
405             	3.01257641e+02
406             	3.01257855e+02
407             	3.01258071e+02
408             	3.01258286e+02
409             	3.01258507e+02
410             	3.01258725e+02
411             	3.01258934e+02
412             	3.01259149e+02
413             	3.01259363e+02
414             	3.01259576e+02
415             	3.01259778e+02
416             	3.01259962e+02
417             	3.01260169e+02
418             	3.01260364e+02
419             	3.01260549e+02
420             	3.01260735e+02
421             	3.01260924e+02
422             	3.01261113e+02
423             	3.01261312e+02
424             	3.01261503e+02
425             	3.01261693e+02
426             	3.01261879e+02
427             	3.01262066e+02
428             	3.01262257e+02
429             	3.01262448e+02
430             	3.01262626e+02
431             	3.01262808e+02
432             	3.01262989e+02
433             	3.01263170e+02
434             	3.01263348e+02
435             	3.01263518e+02
436             	3.01263686e+02
437             	3.01263851e+02
438             	3.01264017e+02
439             	3.01264181e+02
440             	3.01264332e+02
441             	3.01264490e+02
442             	3.01264650e+02
443             	3.01264809e+02
444             	3.01264972e+02
445             	3.01265139e+02
446             	3.01265304e+02
447             	3.01265468e+02
448             	3.01265626e+02
449             	3.01265781e+02
450             	3.01265940e+02
451             	3.01266090e+02
452             	3.01266242e+02
453             	3.01266392e+02
454             	3.01266538e+02
455             	3.01266680e+02
456             	3.01266822e+02
457             	3.01266971e+02
458             	3.01267123e+02
459             	3.01267264e+02
460             	3.01267409e+02
461             	3.01267550e+02
462             	3.01267695e+02
463             	3.01267840e+02
464             	3.01267985e+02
465             	3.01268129e+02
466             	3.01268266e+02
467             	3.01268393e+02
468             	3.01268519e+02
469             	3.01268651e+02
470             	3.01268779e+02
471             	3.01268899e+02
472             	3.01269019e+02
473             	3.01269145e+02
474             	3.01269271e+02
475             	3.01269402e+02
476             	3.01269529e+02
477             	3.01269659e+02
478             	3.01269793e+02
479             	3.01269924e+02
480             	3.01270053e+02
481             	3.01270179e+02
482             	3.01270302e+02
483             	3.01270423e+02
484             	3.01270543e+02
485             	3.01270665e+02
486             	3.01270794e+02
487             	3.01270913e+02
488             	3.01271029e+02
489             	3.01271147e+02
490             	3.01271261e+02
491             	3.01271369e+02
492             	3.01271476e+02
493             	3.01271586e+02
494             	3.01271697e+02
495             	3.01271808e+02
496             	3.01271909e+02
497             	3.01272016e+02
498             	3.01272124e+02
499             	3.01272233e+02
500             	3.01272344e+02
501             	3.01272452e+02
502             	3.01272560e+02
503             	3.01272667e+02
504             	3.01272773e+02
505             	3.01272880e+02
506             	3.01272988e+02
507             	3.01273090e+02
508             	3.01273192e+02
509             	3.01273294e+02
510             	3.01273394e+02
511             	3.01273495e+02
512             	3.01273590e+02
513             	3.01273688e+02
514             	3.01273788e+02
515             	3.01273880e+02
516             	3.01273974e+02
517             	3.01274071e+02
518             	3.01274168e+02
519             	3.01274262e+02
520             	3.01274357e+02
521             	3.01274455e+02
522             	3.01274551e+02
523             	3.01274645e+02
524             	3.01274739e+02
525             	3.01274836e+02
526             	3.01274931e+02
527             	3.01275023e+02
528             	3.01275116e+02
529             	3.01275210e+02
530             	3.01275302e+02
531             	3.01275390e+02
532             	3.01275479e+02
533             	3.01275565e+02
534             	3.01275654e+02
535             	3.01275739e+02
536             	3.01275823e+02
537             	3.01275909e+02
538             	3.01275991e+02
539             	3.01276071e+02
540             	3.01276150e+02
541             	3.01276230e+02
542             	3.01276308e+02
543             	3.01276385e+02
544             	3.01276459e+02
545             	3.01276538e+02
546             	3.01276618e+02
547             	3.01276697e+02
548             	3.01276778e+02
549             	3.01276862e+02
550             	3.01276947e+02
551             	3.01277024e+02
552             	3.01277105e+02
553             	3.01277188e+02
554             	3.01277271e+02
555             	3.01277350e+02
556             	3.01277429e+02
557             	3.01277510e+02
558             	3.01277590e+02
559             	3.01277666e+02
560             	3.01277742e+02
561             	3.01277820e+02
562             	3.01277897e+02
563             	3.01277968e+02
564             	3.01278039e+02
565             	3.01278112e+02
566             	3.01278181e+02
567             	3.01278248e+02
568             	3.01278315e+02
569             	3.01278384e+02
570             	3.01278452e+02
571             	3.01278517e+02
572             	3.01278583e+02
573             	3.01278651e+02
574             	3.01278718e+02
575             	3.01278782e+02
576             	3.01278848e+02
577             	3.01278916e+02
578             	3.01278984e+02
579             	3.01279048e+02
580             	3.01279114e+02
581             	3.01279183e+02
582             	3.01279249e+02
583             	3.01279312e+02
584             	3.01279377e+02
585             	3.01279443e+02
586             	3.01279507e+02
587             	3.01279569e+02
588             	3.01279632e+02
589             	3.01279697e+02
590             	3.01279760e+02
591             	3.01279821e+02
592             	3.01279882e+02
593             	3.01279946e+02
594             	3.01280009e+02
595             	3.01280068e+02
596             	3.01280129e+02
597             	3.01280191e+02
598             	3.01280252e+02
599             	3.01280311e+02
600             	3.01280369e+02
601             	3.01280430e+02
602             	3.01280489e+02
603             	3.01280545e+02
604             	3.01280602e+02
605             	3.01280661e+02
606             	3.01280718e+02
607             	3.01280773e+02
608             	3.01280828e+02
609             	3.01280885e+02
610             	3.01280942e+02
611             	3.01280995e+02
612             	3.01281050e+02
613             	3.01281107e+02
614             	3.01281163e+02
615             	3.01281217e+02
616             	3.01281271e+02
617             	3.01281328e+02
618             	3.01281383e+02
619             	3.01281436e+02
620             	3.01281489e+02
621             	3.01281545e+02
622             	3.01281600e+02
623             	3.01281652e+02
624             	3.01281705e+02
625             	3.01281760e+02
626             	3.01281813e+02
627             	3.01281864e+02
628             	3.01281916e+02
629             	3.01281969e+02
630             	3.01282021e+02
631             	3.01282070e+02
632             	3.01282119e+02
633             	3.01282170e+02
634             	3.01282220e+02
635             	3.01282267e+02
636             	3.01282314e+02
637             	3.01282364e+02
638             	3.01282412e+02
639             	3.01282457e+02
640             	3.01282504e+02
641             	3.01282553e+02
642             	3.01282601e+02
643             	3.01282646e+02
644             	3.01282692e+02
645             	3.01282740e+02
646             	3.01282787e+02
647             	3.01282832e+02
648             	3.01282877e+02
649             	3.01282925e+02
650             	3.01282972e+02
651             	3.01283015e+02
652             	3.01283059e+02
653             	3.01283105e+02
654             	3.01283150e+02
655             	3.01283192e+02
656             	3.01283235e+02
657             	3.01283280e+02
658             	3.01283325e+02
659             	3.01283366e+02
660             	3.01283408e+02
661             	3.01283452e+02
662             	3.01283495e+02
663             	3.01283536e+02
664             	3.01283576e+02
665             	3.01283619e+02
666             	3.01283661e+02
667             	3.01283700e+02
668             	3.01283740e+02
669             	3.01283782e+02
670             	3.01283822e+02
671             	3.01283859e+02
672             	3.01283897e+02
673             	3.01283938e+02
674             	3.01283978e+02
675             	3.01284015e+02
676             	3.01284052e+02
677             	3.01284092e+02
678             	3.01284131e+02
679             	3.01284167e+02
680             	3.01284204e+02
681             	3.01284243e+02
682             	3.01284280e+02
683             	3.01284315e+02
684             	3.01284351e+02
685             	3.01284390e+02
686             	3.01284427e+02
687             	3.01284463e+02
688             	3.01284499e+02
689             	3.01284537e+02
690             	3.01284575e+02
691             	3.01284610e+02
692             	3.01284646e+02
693             	3.01284684e+02
694             	3.01284722e+02
695             	3.01284757e+02
696             	3.01284793e+02
697             	3.01284831e+02
698             	3.01284867e+02
699             	3.01284901e+02
700             	3.01284935e+02
701             	3.01284971e+02
702             	3.01285006e+02
703             	3.01285038e+02
704             	3.01285071e+02
705             	3.01285105e+02
706             	3.01285139e+02
707             	3.01285169e+02
708             	3.01285201e+02
709             	3.01285235e+02
710             	3.01285267e+02
711             	3.01285297e+02
712             	3.01285328e+02
713             	3.01285361e+02
714             	3.01285394e+02
715             	3.01285423e+02
716             	3.01285454e+02
717             	3.01285487e+02
718             	3.01285519e+02
719             	3.01285548e+02
720             	3.01285578e+02
721             	3.01285610e+02
722             	3.01285641e+02
723             	3.01285670e+02
724             	3.01285700e+02
725             	3.01285731e+02
726             	3.01285762e+02
727             	3.01285789e+02
728             	3.01285817e+02
729             	3.01285849e+02
730             	3.01285879e+02
731             	3.01285907e+02
732             	3.01285937e+02
733             	3.01285968e+02
734             	3.01285999e+02
735             	3.01286026e+02
736             	3.01286054e+02
737             	3.01286085e+02
738             	3.01286114e+02
739             	3.01286140e+02
740             	3.01286168e+02
741             	3.01286198e+02
742             	3.01286227e+02
743             	3.01286254e+02
744             	3.01286280e+02
745             	3.01286309e+02
746             	3.01286337e+02
747             	3.01286361e+02
748             	3.01286387e+02
749             	3.01286415e+02
750             	3.01286442e+02
751             	3.01286467e+02
752             	3.01286493e+02
753             	3.01286521e+02
754             	3.01286549e+02
755             	3.01286575e+02
756             	3.01286602e+02
757             	3.01286631e+02
758             	3.01286659e+02
759             	3.01286684e+02
760             	3.01286710e+02
761             	3.01286738e+02
762             	3.01286764e+02
763             	3.01286787e+02
764             	3.01286810e+02
765             	3.01286836e+02
766             	3.01286861e+02
767             	3.01286883e+02
768             	3.01286906e+02
769             	3.01286932e+02
770             	3.01286957e+02
771             	3.01286980e+02
772             	3.01287004e+02
773             	3.01287030e+02
774             	3.01287055e+02
775             	3.01287077e+02
776             	3.01287101e+02
777             	3.01287127e+02
778             	3.01287151e+02
779             	3.01287173e+02
780             	3.01287196e+02
781             	3.01287220e+02
782             	3.01287244e+02
783             	3.01287265e+02
784             	3.01287287e+02
785             	3.01287312e+02
786             	3.01287336e+02
787             	3.01287358e+02
788             	3.01287380e+02
789             	3.01287405e+02
790             	3.01287428e+02
791             	3.01287449e+02
792             	3.01287471e+02
793             	3.01287494e+02
794             	3.01287517e+02
795             	3.01287536e+02
796             	3.01287557e+02
797             	3.01287580e+02
798             	3.01287602e+02
799             	3.01287621e+02
800             	3.01287641e+02
801             	3.01287664e+02
802             	3.01287686e+02
803             	3.01287705e+02
804             	3.01287725e+02
805             	3.01287747e+02
806             	3.01287768e+02
807             	3.01287787e+02
808             	3.01287806e+02
809             	3.01287829e+02
810             	3.01287850e+02
811             	3.01287868e+02
812             	3.01287888e+02
813             	3.01287909e+02
814             	3.01287930e+02
815             	3.01287948e+02
816             	3.01287967e+02
817             	3.01287988e+02
818             	3.01288008e+02
819             	3.01288026e+02
820             	3.01288044e+02
821             	3.01288065e+02
822             	3.01288086e+02
823             	3.01288103e+02
824             	3.01288122e+02
825             	3.01288143e+02
826             	3.01288162e+02
827             	3.01288179e+02
828             	3.01288196e+02
829             	3.01288216e+02
830             	3.01288234e+02
831             	3.01288250e+02
832             	3.01288266e+02
833             	3.01288284e+02
834             	3.01288302e+02
835             	3.01288317e+02
836             	3.01288334e+02
837             	3.01288353e+02
838             	3.01288372e+02
839             	3.01288387e+02
840             	3.01288405e+02
841             	3.01288425e+02
842             	3.01288443e+02
843             	3.01288459e+02
844             	3.01288476e+02
845             	3.01288495e+02
846             	3.01288512e+02
847             	3.01288527e+02
848             	3.01288542e+02
849             	3.01288560e+02
850             	3.01288577e+02
851             	3.01288591e+02
852             	3.01288607e+02
853             	3.01288625e+02
854             	3.01288642e+02
855             	3.01288656e+02
856             	3.01288672e+02
857             	3.01288690e+02
858             	3.01288707e+02
859             	3.01288722e+02
860             	3.01288737e+02
861             	3.01288755e+02
862             	3.01288771e+02
863             	3.01288785e+02
864             	3.01288799e+02
865             	3.01288816e+02
866             	3.01288833e+02
867             	3.01288846e+02
868             	3.01288862e+02
869             	3.01288879e+02
870             	3.01288895e+02
871             	3.01288909e+02
872             	3.01288923e+02
873             	3.01288940e+02
874             	3.01288956e+02
875             	3.01288969e+02
876             	3.01288982e+02
877             	3.01288999e+02
878             	3.01289014e+02
879             	3.01289026e+02
880             	3.01289040e+02
881             	3.01289056e+02
882             	3.01289071e+02
883             	3.01289084e+02
884             	3.01289098e+02
885             	3.01289114e+02
886             	3.01289129e+02
887             	3.01289142e+02
888             	3.01289155e+02
889             	3.01289171e+02
890             	3.01289185e+02
891             	3.01289197e+02
892             	3.01289210e+02
893             	3.01289226e+02
894             	3.01289240e+02
895             	3.01289251e+02
896             	3.01289263e+02
897             	3.01289278e+02
898             	3.01289292e+02
899             	3.01289304e+02
900             	3.01289317e+02
901             	3.01289332e+02
902             	3.01289346e+02
903             	3.01289358e+02
904             	3.01289370e+02
905             	3.01289385e+02
906             	3.01289398e+02
907             	3.01289409e+02
908             	3.01289421e+02
909             	3.01289435e+02
910             	3.01289448e+02
911             	3.01289458e+02
912             	3.01289470e+02
913             	3.01289484e+02
914             	3.01289498e+02
915             	3.01289509e+02
916             	3.01289521e+02
917             	3.01289536e+02
918             	3.01289549e+02
919             	3.01289560e+02
920             	3.01289572e+02
921             	3.01289586e+02
922             	3.01289599e+02
923             	3.01289609e+02
924             	3.01289619e+02
925             	3.01289632e+02
926             	3.01289645e+02
927             	3.01289655e+02
928             	3.01289666e+02
929             	3.01289679e+02
930             	3.01289693e+02
931             	3.01289703e+02
932             	3.01289715e+02
933             	3.01289729e+02