# Region        : cellZone pcb
# Cells         : 538
# Volume        : 1.04416560e+00
# Time          	volAverage(T)
1               	3.00004737e+02
2               	3.00014301e+02
3               	3.00028679e+02
4               	3.00047876e+02
5               	3.00068389e+02
6               	3.00091838e+02
7               	3.00117851e+02
8               	3.00146087e+02
9               	3.00177332e+02
10              	3.00211879e+02
11              	3.00249260e+02
12              	3.00289634e+02
13              	3.00332594e+02
14              	3.00376253e+02
15              	3.00422888e+02
16              	3.00469111e+02
17              	3.00512479e+02
18              	3.00560170e+02
19              	3.00611523e+02
20              	3.00661753e+02
21              	3.00711187e+02
22              	3.00764413e+02
23              	3.00816085e+02
24              	3.00868717e+02
25              	3.00924656e+02
26              	3.00981246e+02
27              	3.01037650e+02
28              	3.01094295e+02
29              	3.01151564e+02
30              	3.01211113e+02
31              	3.01270354e+02
32              	3.01329528e+02
33              	3.01391822e+02
34              	3.01452694e+02
35              	3.01513243e+02
36              	3.01573677e+02
37              	3.01636920e+02
38              	3.01697869e+02
39              	3.01755855e+02
40              	3.01813466e+02
41              	3.01872930e+02
42              	3.01933449e+02
43              	3.01993583e+02
44              	3.02055315e+02
45              	3.02113468e+02
46              	3.02168095e+02
47              	3.02228288e+02
48              	3.02287021e+02
49              	3.02346176e+02
50              	3.02402709e+02
51              	3.02457748e+02
52              	3.02516760e+02
53              	3.02578599e+02
54              	3.02635187e+02
55              	3.02689002e+02
56              	3.02743085e+02
57              	3.02797864e+02
58              	3.02852010e+02
59              	3.02904659e+02
60              	3.02956565e+02
61              	3.03009909e+02
62              	3.03064502e+02
63              	3.03118716e+02
64              	3.03173015e+02
65              	3.03226998e+02
66              	3.03280606e+02
67              	3.03335206e+02
68              	3.03386797e+02
69              	3.03436431e+02
70              	3.03486124e+02
71              	3.03535921e+02
72              	3.03583478e+02
73              	3.03630764e+02
74              	3.03677043e+02
75              	3.03722009e+02
76              	3.03766640e+02
77              	3.03811552e+02
78              	3.03855432e+02
79              	3.03897935e+02
80              	3.03938714e+02
81              	3.03979554e+02
82              	3.04020518e+02
83              	3.04061814e+02
84              	3.04102361e+02
85              	3.04141664e+02
86              	3.04180425e+02
87              	3.04220181e+02
88              	3.04260315e+02
89              	3.04299833e+02
90              	3.04339548e+02
91              	3.04380647e+02
92              	3.04421689e+02
93              	3.04462133e+02
94              	3.04502309e+02
95              	3.04542574e+02
96              	3.04582963e+02
97              	3.04623484e+02
98              	3.04663626e+02
99              	3.04701703e+02
100             	3.04738161e+02
101             	3.04774237e+02
102             	3.04809483e+02
103             	3.04844344e+02
104             	3.04879960e+02
105             	3.04915075e+02
106             	3.04948242e+02
107             	3.04982345e+02
108             	3.05016171e+02
109             	3.05049085e+02
110             	3.05082362e+02
111             	3.05115209e+02
112             	3.05147078e+02
113             	3.05178562e+02
114             	3.05209951e+02
115             	3.05240769e+02
116             	3.05271197e+02
117             	3.05301834e+02
118             	3.05332733e+02
119             	3.05363245e+02
120             	3.05393507e+02
121             	3.05424337e+02
122             	3.05454617e+02
123             	3.05485595e+02
124             	3.05515414e+02
125             	3.05543221e+02
126             	3.05570075e+02
127             	3.05597225e+02
128             	3.05623701e+02
129             	3.05648054e+02
130             	3.05671878e+02
131             	3.05694566e+02
132             	3.05717067e+02
133             	3.05739616e+02
134             	3.05761895e+02
135             	3.05784359e+02
136             	3.05807020e+02
137             	3.05830184e+02
138             	3.05853327e+02
139             	3.05876442e+02
140             	3.05899283e+02
141             	3.05922815e+02
142             	3.05946323e+02
143             	3.05969596e+02
144             	3.05993235e+02
145             	3.06016687e+02
146             	3.06039468e+02
147             	3.06062030e+02
148             	3.06084742e+02
149             	3.06106404e+02
150             	3.06127056e+02
151             	3.06146978e+02
152             	3.06166464e+02
153             	3.06185814e+02
154             	3.06205357e+02
155             	3.06225225e+02
156             	3.06244251e+02
157             	3.06261373e+02
158             	3.06277054e+02
159             	3.06294402e+02
160             	3.06312465e+02
161             	3.06329681e+02
162             	3.06346228e+02
163             	3.06364304e+02
164             	3.06382716e+02
165             	3.06400637e+02
166             	3.06418624e+02
167             	3.06436584e+02
168             	3.06453876e+02
169             	3.06470393e+02
170             	3.06486689e+02
171             	3.06502862e+02
172             	3.06518108e+02
173             	3.06533113e+02
174             	3.06547970e+02
175             	3.06563003e+02
176             	3.06577916e+02
177             	3.06592714e+02
178             	3.06606790e+02
179             	3.06620705e+02
180             	3.06634509e+02
181             	3.06648495e+02
182             	3.06662255e+02
183             	3.06676201e+02
184             	3.06689697e+02
185             	3.06702655e+02
186             	3.06715399e+02
187             	3.06727519e+02
188             	3.06739726e+02
189             	3.06752459e+02
190             	3.06765077e+02
191             	3.06778080e+02
192             	3.06791114e+02
193             	3.06803814e+02
194             	3.06816544e+02
195             	3.06829592e+02
196             	3.06842956e+02
197             	3.06856151e+02
198             	3.06868931e+02
199             	3.06881030e+02
200             	3.06892516e+02
201             	3.06903962e+02
202             	3.06915221e+02
203             	3.06926577e+02
204             	3.06937461e+02
205             	3.06948364e+02
206             	3.06959168e+02
207             	3.06969192e+02
208             	3.06978749e+02
209             	3.06988630e+02
210             	3.06998362e+02
211             	3.07007824e+02
212             	3.07017059e+02
213             	3.07026330e+02
214             	3.07035938e+02
215             	3.07045926e+02
216             	3.07055813e+02
217             	3.07065764e+02
218             	3.07076175e+02
219             	3.07086684e+02
220             	3.07096991e+02
221             	3.07107216e+02
222             	3.07117205e+02
223             	3.07127185e+02
224             	3.07136784e+02
225             	3.07146119e+02
226             	3.07154889e+02
227             	3.07163241e+02
228             	3.07170225e+02
229             	3.07176886e+02
230             	3.07183700e+02
231             	3.07191015e+02
232             	3.07198448e+02
233             	3.07206206e+02
234             	3.07213980e+02
235             	3.07222011e+02
236             	3.07229823e+02
237             	3.07236757e+02
238             	3.07243473e+02
239             	3.07250364e+02
240             	3.07256905e+02
241             	3.07263395e+02
242             	3.07270107e+02
243             	3.07277161e+02
244             	3.07284515e+02
245             	3.07292484e+02
246             	3.07300067e+02
247             	3.07307015e+02
248             	3.07313661e+02
249             	3.07320394e+02
250             	3.07326721e+02
251             	3.07332441e+02
252             	3.07337595e+02
253             	3.07342529e+02
254             	3.07348133e+02
255             	3.07354022e+02
256             	3.07360040e+02
257             	3.07366031e+02
258             	3.07371347e+02
259             	3.07375837e+02
260             	3.07380271e+02
261             	3.07384773e+02
262             	3.07389620e+02
263             	3.07395069e+02
264             	3.07400454e+02
265             	3.07405784e+02
266             	3.07411496e+02
267             	3.07417554e+02
268             	3.07423335e+02
269             	3.07429237e+02
270             	3.07435269e+02
271             	3.07441267e+02
272             	3.07446837e+02
273             	3.07452562e+02
274             	3.07458274e+02
275             	3.07464011e+02
276             	3.07469641e+02
277             	3.07475232e+02
278             	3.07480685e+02
279             	3.07486039e+02
280             	3.07490983e+02
281             	3.07496095e+02
282             	3.07500473e+02
283             	3.07504833e+02
284             	3.07508820e+02
285             	3.07512553e+02
286             	3.07516442e+02
287             	3.07520694e+02
288             	3.07524677e+02
289             	3.07528660e+02
290             	3.07532331e+02
291             	3.07536045e+02
292             	3.07539733e+02
293             	3.07543414e+02
294             	3.07547028e+02
295             	3.07550693e+02
296             	3.07554192e+02
297             	3.07557721e+02
298             	3.07561223e+02
299             	3.07564723e+02
300             	3.07568082e+02
301             	3.07571566e+02
302             	3.07574812e+02
303             	3.07578100e+02
304             	3.07581121e+02
305             	3.07584126e+02
306             	3.07586991e+02
307             	3.07589760e+02
308             	3.07592526e+02
309             	3.07595465e+02
310             	3.07598306e+02
311             	3.07601161e+02
312             	3.07603924e+02
313             	3.07606903e+02
314             	3.07609871e+02
315             	3.07612882e+02
316             	3.07615892e+02
317             	3.07618987e+02
318             	3.07621980e+02
319             	3.07625016e+02
320             	3.07627898e+02
321             	3.07630687e+02
322             	3.07633378e+02
323             	3.07636154e+02
324             	3.07639098e+02
325             	3.07642256e+02
326             	3.07645138e+02
327             	3.07648012e+02
328             	3.07650806e+02
329             	3.07653663e+02
330             	3.07656275e+02
331             	3.07658800e+02
332             	3.07661411e+02
333             	3.07664369e+02
334             	3.07667204e+02
335             	3.07669841e+02
336             	3.07672127e+02
337             	3.07674266e+02
338             	3.07676323e+02
339             	3.07678668e+02
340             	3.07681241e+02
341             	3.07683811e+02
342             	3.07686197e+02
343             	3.07688984e+02
344             	3.07691567e+02
345             	3.07693883e+02
346             	3.07695894e+02
347             	3.07697889e+02
348             	3.07699651e+02
349             	3.07701442e+02
350             	3.07702676e+02
351             	3.07703821e+02
352             	3.07704775e+02
353             	3.07705979e+02
354             	3.07707445e+02
355             	3.07708940e+02
356             	3.07710317e+02
357             	3.07711865e+02
358             	3.07713345e+02
359             	3.07715150e+02
360             	3.07716858e+02
361             	3.07718915e+02
362             	3.07720939e+02
363             	3.07722992e+02
364             	3.07724959e+02
365             	3.07726965e+02
366             	3.07729014e+02
367             	3.07730661e+02
368             	3.07731974e+02
369             	3.07733455e+02
370             	3.07734590e+02
371             	3.07735410e+02
372             	3.07736256e+02
373             	3.07737511e+02
374             	3.07738830e+02
375             	3.07740232e+02
376             	3.07741640e+02
377             	3.07743237e+02
378             	3.07745170e+02
379             	3.07747680e+02
380             	3.07750149e+02
381             	3.07752323e+02
382             	3.07754370e+02
383             	3.07756508e+02
384             	3.07758397e+02
385             	3.07760217e+02
386             	3.07761921e+02
387             	3.07762890e+02
388             	3.07763378e+02
389             	3.07763799e+02
390             	3.07764262e+02
391             	3.07764894e+02
392             	3.07765460e+02
393             	3.07766179e+02
394             	3.07767207e+02
395             	3.07768690e+02
396             	3.07770186e+02
397             	3.07771658e+02
398             	3.07773101e+02
399             	3.07774250e+02
400             	3.07775030e+02
401             	3.07775938e+02
402             	3.07776801e+02
403             	3.07777611e+02
404             	3.07778170e+02
405             	3.07779165e+02
406             	3.07780501e+02
407             	3.07781495e+02
408             	3.07782378e+02
409             	3.07783333e+02
410             	3.07784304e+02
411             	3.07784694e+02
412             	3.07784806e+02
413             	3.07785085e+02
414             	3.07785446e+02
415             	3.07786183e+02
416             	3.07786941e+02
417             	3.07787394e+02
418             	3.07788195e+02
419             	3.07789749e+02
420             	3.07791192e+02
421             	3.07792486e+02
422             	3.07793637e+02
423             	3.07794882e+02
424             	3.07795919e+02
425             	3.07797033e+02
426             	3.07797902e+02
427             	3.07798372e+02
428             	3.07798792e+02
429             	3.07799442e+02
430             	3.07800231e+02
431             	3.07801153e+02
432             	3.07802407e+02
433             	3.07803780e+02
434             	3.07805006e+02
435             	3.07806092e+02
436             	3.07806879e+02
437             	3.07807698e+02
438             	3.07807883e+02
439             	3.07808061e+02
440             	3.07808331e+02
441             	3.07808708e+02
442             	3.07809160e+02
443             	3.07809663e+02
444             	3.07810228e+02
445             	3.07810885e+02
446             	3.07811658e+02
447             	3.07812550e+02
448             	3.07813074e+02
449             	3.07813715e+02
450             	3.07813950e+02
451             	3.07814253e+02
452             	3.07814535e+02
453             	3.07815047e+02
454             	3.07815361e+02
455             	3.07815735e+02
456             	3.07816057e+02
457             	3.07816426e+02
458             	3.07816734e+02
459             	3.07817058e+02
460             	3.07817884e+02
461             	3.07818848e+02
462             	3.07819714e+02
463             	3.07820514e+02
464             	3.07821179e+02
465             	3.07821772e+02
466             	3.07821939e+02
467             	3.07822157e+02
468             	3.07822261e+02
469             	3.07822564e+02
470             	3.07822779e+02
471             	3.07822872e+02
472             	3.07823065e+02
473             	3.07823570e+02
474             	3.07824245e+02
475             	3.07824790e+02
476             	3.07825366e+02
477             	3.07825931e+02
478             	3.07826413e+02
479             	3.07826511e+02
480             	3.07826618e+02
481             	3.07826656e+02
482             	3.07827175e+02
483             	3.07827825e+02
484             	3.07828681e+02
485             	3.07829676e+02
486             	3.07830608e+02
487             	3.07831316e+02
488             	3.07831852e+02
489             	3.07832310e+02
490             	3.07832855e+02
491             	3.07833284e+02
492             	3.07833740e+02
493             	3.07833925e+02
494             	3.07834141e+02
495             	3.07834169e+02
496             	3.07834391e+02
497             	3.07834513e+02
498             	3.07834673e+02
499             	3.07834704e+02
500             	3.07835153e+02
501             	3.07835358e+02
502             	3.07835679e+02
503             	3.07836007e+02
504             	3.07836081e+02
505             	3.07836057e+02
506             	3.07836507e+02
507             	3.07836911e+02
508             	3.07837448e+02
509             	3.07837833e+02
510             	3.07838322e+02
511             	3.07838637e+02
512             	3.07839033e+02
513             	3.07839077e+02
514             	3.07839255e+02
515             	3.07839228e+02
516             	3.07839122e+02
517             	3.07839101e+02
518             	3.07839475e+02
519             	3.07839875e+02
520             	3.07840412e+02
521             	3.07840987e+02
522             	3.07841930e+02
523             	3.07842525e+02
524             	3.07842847e+02
525             	3.07842809e+02
526             	3.07842910e+02
527             	3.07842639e+02
528             	3.07842450e+02
529             	3.07842179e+02
530             	3.07842077e+02
531             	3.07841945e+02
532             	3.07841750e+02
533             	3.07841769e+02
534             	3.07842240e+02
535             	3.07842654e+02
536             	3.07843207e+02
537             	3.07843819e+02
538             	3.07844429e+02
539             	3.07844815e+02
540             	3.07845126e+02
541             	3.07845472e+02
542             	3.07845981e+02
543             	3.07846095e+02
544             	3.07846106e+02
545             	3.07845973e+02
546             	3.07845966e+02
547             	3.07845901e+02
548             	3.07845940e+02
549             	3.07845958e+02
550             	3.07846135e+02
551             	3.07846214e+02
552             	3.07846357e+02
553             	3.07846466e+02
554             	3.07846833e+02
555             	3.07847034e+02
556             	3.07847296e+02
557             	3.07847479e+02
558             	3.07847731e+02
559             	3.07847960e+02
560             	3.07848305e+02
561             	3.07848615e+02
562             	3.07849252e+02
563             	3.07849520e+02
564             	3.07849765e+02
565             	3.07849848e+02
566             	3.07850034e+02
567             	3.07850097e+02
568             	3.07850230e+02
569             	3.07850301e+02
570             	3.07850495e+02
571             	3.07850658e+02
572             	3.07850999e+02
573             	3.07851189e+02
574             	3.07851326e+02
575             	3.07851367e+02
576             	3.07851583e+02
577             	3.07851592e+02
578             	3.07851598e+02
579             	3.07851502e+02
580             	3.07851474e+02
581             	3.07851370e+02
582             	3.07851626e+02
583             	3.07851814e+02
584             	3.07852250e+02
585             	3.07852499e+02
586             	3.07852841e+02
587             	3.07852870e+02
588             	3.07852924e+02
589             	3.07852834e+02
590             	3.07852872e+02
591             	3.07852840e+02
592             	3.07852865e+02
593             	3.07852888e+02
594             	3.07853123e+02
595             	3.07853081e+02
596             	3.07853149e+02
597             	3.07853083e+02
598             	3.07853170e+02
599             	3.07853150e+02
600             	3.07853260e+02
601             	3.07853324e+02
602             	3.07853471e+02
603             	3.07853656e+02
604             	3.07854146e+02
605             	3.07854421e+02
606             	3.07854742e+02
607             	3.07854831e+02
608             	3.07854883e+02
609             	3.07854697e+02
610             	3.07854491e+02
611             	3.07854288e+02
612             	3.07854291e+02
613             	3.07854239e+02
614             	3.07854271e+02
615             	3.07854310e+02
616             	3.07854636e+02
617             	3.07854799e+02
618             	3.07855059e+02
619             	3.07855096e+02
620             	3.07855217e+02
621             	3.07855134e+02
622             	3.07855091e+02
623             	3.07854899e+02
624             	3.07854812e+02
625             	3.07854725e+02
626             	3.07854813e+02
627             	3.07855044e+02
628             	3.07855674e+02
629             	3.07856009e+02
630             	3.07856266e+02
631             	3.07856197e+02
632             	3.07856193e+02
633             	3.07856013e+02
634             	3.07856082e+02
635             	3.07856079e+02
636             	3.07856184e+02
637             	3.07856220e+02
638             	3.07856423e+02
639             	3.07856746e+02
640             	3.07857323e+02
641             	3.07857598e+02
642             	3.07857867e+02
643             	3.07857836e+02
644             	3.07857725e+02
645             	3.07857641e+02
646             	3.07857700e+02
647             	3.07857747e+02
648             	3.07857963e+02
649             	3.07858208e+02
650             	3.07858706e+02
651             	3.07858986e+02
652             	3.07859428e+02
653             	3.07859570e+02
654             	3.07859830e+02
655             	3.07859811e+02
656             	3.07859940e+02
657             	3.07859867e+02
658             	3.07859892e+02
659             	3.07859806e+02
660             	3.07859783e+02
661             	3.07859666e+02
662             	3.07859523e+02
663             	3.07859330e+02
664             	3.07859297e+02
665             	3.07859200e+02
666             	3.07859171e+02
667             	3.07859097e+02
668             	3.07859266e+02
669             	3.07859200e+02
670             	3.07859216e+02
671             	3.07859122e+02
672             	3.07859105e+02
673             	3.07858862e+02
674             	3.07858797e+02
675             	3.07858607e+02
676             	3.07858639e+02
677             	3.07858560e+02
678             	3.07858721e+02
679             	3.07858728e+02
680             	3.07858846e+02
681             	3.07858798e+02
682             	3.07858681e+02
683             	3.07858527e+02
684             	3.07858562e+02
685             	3.07858478e+02
686             	3.07858466e+02
687             	3.07858430e+02
688             	3.07858522e+02
689             	3.07858724e+02
690             	3.07859161e+02
691             	3.07859440e+02
692             	3.07859774e+02
693             	3.07860039e+02
694             	3.07860366e+02
695             	3.07860411e+02
696             	3.07860609e+02
697             	3.07860659e+02
698             	3.07860939e+02
699             	3.07861082e+02
700             	3.07861411e+02
701             	3.07861555e+02
702             	3.07861831e+02
703             	3.07861908e+02
704             	3.07862006e+02
705             	3.07861911e+02
706             	3.07861764e+02
707             	3.07861631e+02
708             	3.07861578e+02
709             	3.07861398e+02
710             	3.07861294e+02
711             	3.07861172e+02
712             	3.07861315e+02
713             	3.07861278e+02
714             	3.07861362e+02
715             	3.07861258e+02
716             	3.07861209e+02
717             	3.07861017e+02
718             	3.07861005e+02
719             	3.07860835e+02
720             	3.07860700e+02
721             	3.07860544e+02
722             	3.07860466e+02
723             	3.07860392e+02
724             	3.07860481e+02
725             	3.07860466e+02
726             	3.07860464e+02
727             	3.07860450e+02
728             	3.07860542e+02
729             	3.07860494e+02
730             	3.07860521e+02
731             	3.07860453e+02
732             	3.07860522e+02
733             	3.07860476e+02
734             	3.07860476e+02
735             	3.07860451e+02
736             	3.07860569e+02
737             	3.07860600e+02
738             	3.07860696e+02
739             	3.07860795e+02
740             	3.07861153e+02
741             	3.07861248e+02
742             	3.07861480e+02
743             	3.07861543e+02
744             	3.07861693e+02
745             	3.07861723e+02
746             	3.07861889e+02
747             	3.07861924e+02
748             	3.07862121e+02
749             	3.07862178e+02
750             	3.07862281e+02
751             	3.07862330e+02
752             	3.07862545e+02
753             	3.07862697e+02
754             	3.07862924e+02
755             	3.07863127e+02
756             	3.07863586e+02
757             	3.07863706e+02
758             	3.07863801e+02
759             	3.07863739e+02
760             	3.07863806e+02
761             	3.07863670e+02
762             	3.07863648e+02
763             	3.07863417e+02
764             	3.07863312e+02
765             	3.07863004e+02
766             	3.07862662e+02
767             	3.07862357e+02
768             	3.07862243e+02
769             	3.07861991e+02
770             	3.07861829e+02
771             	3.07861641e+02
772             	3.07861555e+02
773             	3.07861365e+02
774             	3.07861327e+02
775             	3.07861274e+02
776             	3.07861263e+02
777             	3.07861212e+02
778             	3.07861310e+02
779             	3.07861298e+02
780             	3.07861381e+02
781             	3.07861456e+02
782             	3.07861594e+02
783             	3.07861546e+02
784             	3.07861624e+02
785             	3.07861616e+02
786             	3.07861681e+02
787             	3.07861659e+02
788             	3.07861645e+02
789             	3.07861503e+02
790             	3.07861466e+02
791             	3.07861407e+02
792             	3.07861589e+02
793             	3.07861601e+02
794             	3.07861780e+02
795             	3.07861823e+02
796             	3.07862020e+02
797             	3.07862093e+02
798             	3.07862320e+02
799             	3.07862412e+02
800             	3.07862624e+02
801             	3.07862709e+02
802             	3.07862822e+02
803             	3.07862847e+02
804             	3.07862926e+02
805             	3.07862931e+02
806             	3.07863014e+02
807             	3.07862992e+02
808             	3.07863236e+02
809             	3.07863267e+02
810             	3.07863314e+02
811             	3.07863275e+02
812             	3.07863395e+02
813             	3.07863369e+02
814             	3.07863391e+02
815             	3.07863363e+02
816             	3.07863498e+02
817             	3.07863366e+02
818             	3.07863279e+02
819             	3.07862961e+02
820             	3.07862630e+02
821             	3.07862271e+02
822             	3.07862163e+02
823             	3.07861916e+02
824             	3.07861827e+02
825             	3.07861673e+02
826             	3.07861651e+02
827             	3.07861511e+02
828             	3.07861406e+02
829             	3.07861333e+02
830             	3.07861594e+02
831             	3.07861645e+02
832             	3.07861725e+02
833             	3.07861687e+02
834             	3.07861613e+02
835             	3.07861610e+02
836             	3.07861817e+02
837             	3.07861777e+02
838             	3.07861755e+02
839             	3.07861799e+02
840             	3.07862060e+02
841             	3.07862108e+02
842             	3.07862237e+02
843             	3.07862285e+02
844             	3.07862378e+02
845             	3.07862177e+02
846             	3.07862009e+02
847             	3.07861761e+02
848             	3.07861595e+02
849             	3.07861477e+02
850             	3.07861654e+02
851             	3.07861791e+02
852             	3.07862016e+02
853             	3.07862191e+02
854             	3.07862525e+02
855             	3.07862813e+02
856             	3.07863174e+02
857             	3.07863457e+02
858             	3.07863831e+02
859             	3.07864014e+02
860             	3.07864136e+02
861             	3.07864090e+02
862             	3.07864199e+02
863             	3.07864078e+02
864             	3.07863920e+02
865             	3.07863752e+02
866             	3.07863823e+02
867             	3.07863684e+02
868             	3.07863627e+02
869             	3.07863419e+02
870             	3.07863417e+02
871             	3.07863236e+02
872             	3.07863209e+02
873             	3.07863040e+02
874             	3.07862991e+02
875             	3.07862899e+02
876             	3.07862847e+02
877             	3.07862725e+02
878             	3.07862763e+02
879             	3.07862714e+02
880             	3.07862704e+02
881             	3.07862609e+02
882             	3.07862581e+02
883             	3.07862491e+02
884             	3.07862453e+02
885             	3.07862360e+02
886             	3.07862573e+02
887             	3.07862640e+02
888             	3.07862864e+02
889             	3.07862926e+02
890             	3.07863035e+02
891             	3.07862968e+02
892             	3.07862902e+02
893             	3.07862710e+02
894             	3.07862655e+02
895             	3.07862478e+02
896             	3.07862322e+02
897             	3.07862149e+02
898             	3.07862295e+02
899             	3.07862252e+02
900             	3.07862391e+02
901             	3.07862371e+02
902             	3.07862482e+02
903             	3.07862457e+02
904             	3.07862569e+02
905             	3.07862565e+02
906             	3.07862622e+02
907             	3.07862602e+02
908             	3.07862596e+02
909             	3.07862565e+02
910             	3.07862767e+02
911             	3.07862826e+02
912             	3.07862960e+02
913             	3.07862955e+02
914             	3.07862949e+02
915             	3.07862917e+02
916             	3.07863083e+02
917             	3.07863123e+02
918             	3.07863190e+02
919             	3.07863177e+02
920             	3.07863222e+02
921             	3.07863284e+02
922             	3.07863572e+02
923             	3.07863558e+02
924             	3.07863760e+02
925             	3.07863738e+02
926             	3.07863860e+02
927             	3.07863760e+02
928             	3.07863762e+02
929             	3.07863644e+02
930             	3.07863563e+02
931             	3.07863372e+02
932             	3.07863255e+02
933             	3.07863136e+02