# Region        : cellZone fluid
# Cells         : 8874
# Volume        : 1.72508430e+01
# Time          	volAverage(T)
1               	3.00000851e+02
2               	3.00001452e+02
3               	3.00005409e+02
4               	3.00009821e+02
5               	3.00011870e+02
6               	3.00013210e+02
7               	3.00015599e+02
8               	3.00017865e+02
9               	3.00021077e+02
10              	3.00025255e+02
11              	3.00028504e+02
12              	3.00032440e+02
13              	3.00037511e+02
14              	3.00043249e+02
15              	3.00047011e+02
16              	3.00051252e+02
17              	3.00054656e+02
18              	3.00059015e+02
19              	3.00063359e+02
20              	3.00068835e+02
21              	3.00074048e+02
22              	3.00078909e+02
23              	3.00083228e+02
24              	3.00088605e+02
25              	3.00093083e+02
26              	3.00099330e+02
27              	3.00104427e+02
28              	3.00109773e+02
29              	3.00115499e+02
30              	3.00120459e+02
31              	3.00125753e+02
32              	3.00129707e+02
33              	3.00133974e+02
34              	3.00138423e+02
35              	3.00144698e+02
36              	3.00152038e+02
37              	3.00159794e+02
38              	3.00168056e+02
39              	3.00174788e+02
40              	3.00181542e+02
41              	3.00187630e+02
42              	3.00193495e+02
43              	3.00198847e+02
44              	3.00204441e+02
45              	3.00210326e+02
46              	3.00218389e+02
47              	3.00226750e+02
48              	3.00234918e+02
49              	3.00241436e+02
50              	3.00248907e+02
51              	3.00255135e+02
52              	3.00261600e+02
53              	3.00267422e+02
54              	3.00273193e+02
55              	3.00277367e+02
56              	3.00284902e+02
57              	3.00294268e+02
58              	3.00300422e+02
59              	3.00305967e+02
60              	3.00312786e+02
61              	3.00318581e+02
62              	3.00323153e+02
63              	3.00326771e+02
64              	3.00332871e+02
65              	3.00338499e+02
66              	3.00344026e+02
67              	3.00348224e+02
68              	3.00351593e+02
69              	3.00357575e+02
70              	3.00363029e+02
71              	3.00369332e+02
72              	3.00373674e+02
73              	3.00377223e+02
74              	3.00382957e+02
75              	3.00387993e+02
76              	3.00393428e+02
77              	3.00399612e+02
78              	3.00404454e+02
79              	3.00409610e+02
80              	3.00416894e+02
81              	3.00421405e+02
82              	3.00425715e+02
83              	3.00430822e+02
84              	3.00434962e+02
85              	3.00438694e+02
86              	3.00441469e+02
87              	3.00445559e+02
88              	3.00450434e+02
89              	3.00454563e+02
90              	3.00456987e+02
91              	3.00463068e+02
92              	3.00465420e+02
93              	3.00470742e+02
94              	3.00473850e+02
95              	3.00478729e+02
96              	3.00484158e+02
97              	3.00490266e+02
98              	3.00495104e+02
99              	3.00499923e+02
100             	3.00504892e+02
101             	3.00509720e+02
102             	3.00514642e+02
103             	3.00519590e+02
104             	3.00524554e+02
105             	3.00528169e+02
106             	3.00531237e+02
107             	3.00536300e+02
108             	3.00540173e+02
109             	3.00543151e+02
110             	3.00547478e+02
111             	3.00551359e+02
112             	3.00555127e+02
113             	3.00558694e+02
114             	3.00561679e+02
115             	3.00564526e+02
116             	3.00567658e+02
117             	3.00571529e+02
118             	3.00575348e+02
119             	3.00579703e+02
120             	3.00581969e+02
121             	3.00587325e+02
122             	3.00589357e+02
123             	3.00593567e+02
124             	3.00596479e+02
125             	3.00600142e+02
126             	3.00603987e+02
127             	3.00608151e+02
128             	3.00611625e+02
129             	3.00614359e+02
130             	3.00616989e+02
131             	3.00618934e+02
132             	3.00621061e+02
133             	3.00624421e+02
134             	3.00627405e+02
135             	3.00629617e+02
136             	3.00632059e+02
137             	3.00633376e+02
138             	3.00635375e+02
139             	3.00636543e+02
140             	3.00641713e+02
141             	3.00642808e+02
142             	3.00644500e+02
143             	3.00646191e+02
144             	3.00649917e+02
145             	3.00651847e+02
146             	3.00654629e+02
147             	3.00657484e+02
148             	3.00660897e+02
149             	3.00664954e+02
150             	3.00667356e+02
151             	3.00671395e+02
152             	3.00671312e+02
153             	3.00674464e+02
154             	3.00677194e+02
155             	3.00679486e+02
156             	3.00680998e+02
157             	3.00682732e+02
158             	3.00683915e+02
159             	3.00684252e+02
160             	3.00684759e+02
161             	3.00685763e+02
162             	3.00686777e+02
163             	3.00687537e+02
164             	3.00688621e+02
165             	3.00690142e+02
166             	3.00692173e+02
167             	3.00694337e+02
168             	3.00696519e+02
169             	3.00698292e+02
170             	3.00699135e+02
171             	3.00703419e+02
172             	3.00703643e+02
173             	3.00704930e+02
174             	3.00706388e+02
175             	3.00708141e+02
176             	3.00710142e+02
177             	3.00712175e+02
178             	3.00714127e+02
179             	3.00716008e+02
180             	3.00717209e+02
181             	3.00718283e+02
182             	3.00720135e+02
183             	3.00721909e+02
184             	3.00723980e+02
185             	3.00725054e+02
186             	3.00726516e+02
187             	3.00726446e+02
188             	3.00726901e+02
189             	3.00727676e+02
190             	3.00732202e+02
191             	3.00731597e+02
192             	3.00732364e+02
193             	3.00733116e+02
194             	3.00734444e+02
195             	3.00735804e+02
196             	3.00735992e+02
197             	3.00738186e+02
198             	3.00739506e+02
199             	3.00740622e+02
200             	3.00743017e+02
201             	3.00745278e+02
202             	3.00745992e+02
203             	3.00746758e+02
204             	3.00747405e+02
205             	3.00747868e+02
206             	3.00748023e+02
207             	3.00750117e+02
208             	3.00751776e+02
209             	3.00753058e+02
210             	3.00754167e+02
211             	3.00755044e+02
212             	3.00754951e+02
213             	3.00756299e+02
214             	3.00759158e+02
215             	3.00759720e+02
216             	3.00760503e+02
217             	3.00761845e+02
218             	3.00763433e+02
219             	3.00763552e+02
220             	3.00764383e+02
221             	3.00766155e+02
222             	3.00767034e+02
223             	3.00769007e+02
224             	3.00770927e+02
225             	3.00772814e+02
226             	3.00773769e+02
227             	3.00774899e+02
228             	3.00775099e+02
229             	3.00775357e+02
230             	3.00775699e+02
231             	3.00776114e+02
232             	3.00776716e+02
233             	3.00777465e+02
234             	3.00777814e+02
235             	3.00777675e+02
236             	3.00779202e+02
237             	3.00780922e+02
238             	3.00781525e+02
239             	3.00781989e+02
240             	3.00782462e+02
241             	3.00782701e+02
242             	3.00783037e+02
243             	3.00783503e+02
244             	3.00784284e+02
245             	3.00786007e+02
246             	3.00785933e+02
247             	3.00786523e+02
248             	3.00787392e+02
249             	3.00788006e+02
250             	3.00788687e+02
251             	3.00789187e+02
252             	3.00790209e+02
253             	3.00791300e+02
254             	3.00792547e+02
255             	3.00793947e+02
256             	3.00794858e+02
257             	3.00795507e+02
258             	3.00792757e+02
259             	3.00793699e+02
260             	3.00794170e+02
261             	3.00793793e+02
262             	3.00793319e+02
263             	3.00793377e+02
264             	3.00794043e+02
265             	3.00793874e+02
266             	3.00793806e+02
267             	3.00794870e+02
268             	3.00794587e+02
269             	3.00794033e+02
270             	3.00794124e+02
271             	3.00794532e+02
272             	3.00795078e+02
273             	3.00795774e+02
274             	3.00796692e+02
275             	3.00798251e+02
276             	3.00798905e+02
277             	3.00797779e+02
278             	3.00799707e+02
279             	3.00800742e+02
280             	3.00800417e+02
281             	3.00799622e+02
282             	3.00800269e+02
283             	3.00800750e+02
284             	3.00800098e+02
285             	3.00799888e+02
286             	3.00799911e+02
287             	3.00803560e+02
288             	3.00802230e+02
289             	3.00806540e+02
290             	3.00805356e+02
291             	3.00805950e+02
292             	3.00806161e+02
293             	3.00807336e+02
294             	3.00807771e+02
295             	3.00808461e+02
296             	3.00808837e+02
297             	3.00809371e+02
298             	3.00811074e+02
299             	3.00812850e+02
300             	3.00814190e+02
301             	3.00815525e+02
302             	3.00813966e+02
303             	3.00815428e+02
304             	3.00815747e+02
305             	3.00815281e+02
306             	3.00814621e+02
307             	3.00813759e+02
308             	3.00812706e+02
309             	3.00811614e+02
310             	3.00816979e+02
311             	3.00814996e+02
312             	3.00814345e+02
313             	3.00813841e+02
314             	3.00814337e+02
315             	3.00814948e+02
316             	3.00815619e+02
317             	3.00817403e+02
318             	3.00815152e+02
319             	3.00816962e+02
320             	3.00817816e+02
321             	3.00817288e+02
322             	3.00816875e+02
323             	3.00816774e+02
324             	3.00817234e+02
325             	3.00818320e+02
326             	3.00820308e+02
327             	3.00819802e+02
328             	3.00819754e+02
329             	3.00819786e+02
330             	3.00820355e+02
331             	3.00820363e+02
332             	3.00819181e+02
333             	3.00820668e+02
334             	3.00821418e+02
335             	3.00821679e+02
336             	3.00822133e+02
337             	3.00823344e+02
338             	3.00822219e+02
339             	3.00824859e+02
340             	3.00822757e+02
341             	3.00824307e+02
342             	3.00823582e+02
343             	3.00822202e+02
344             	3.00821710e+02
345             	3.00821495e+02
346             	3.00821538e+02
347             	3.00821935e+02
348             	3.00822606e+02
349             	3.00823213e+02
350             	3.00823584e+02
351             	3.00823967e+02
352             	3.00824016e+02
353             	3.00824217e+02
354             	3.00825297e+02
355             	3.00826360e+02
356             	3.00827147e+02
357             	3.00827754e+02
358             	3.00828539e+02
359             	3.00829288e+02
360             	3.00829568e+02
361             	3.00830085e+02
362             	3.00830513e+02
363             	3.00830991e+02
364             	3.00831439e+02
365             	3.00832297e+02
366             	3.00832689e+02
367             	3.00833395e+02
368             	3.00834159e+02
369             	3.00835404e+02
370             	3.00836653e+02
371             	3.00837746e+02
372             	3.00838024e+02
373             	3.00838040e+02
374             	3.00837350e+02
375             	3.00836440e+02
376             	3.00835559e+02
377             	3.00834857e+02
378             	3.00834491e+02
379             	3.00834173e+02
380             	3.00833595e+02
381             	3.00833239e+02
382             	3.00832998e+02
383             	3.00832931e+02
384             	3.00832974e+02
385             	3.00832839e+02
386             	3.00832831e+02
387             	3.00832780e+02
388             	3.00832796e+02
389             	3.00832879e+02
390             	3.00832908e+02
391             	3.00833079e+02
392             	3.00832984e+02
393             	3.00833214e+02
394             	3.00833279e+02
395             	3.00833095e+02
396             	3.00833089e+02
397             	3.00833141e+02
398             	3.00833255e+02
399             	3.00833448e+02
400             	3.00833935e+02
401             	3.00834723e+02
402             	3.00834912e+02
403             	3.00835028e+02
404             	3.00834327e+02
405             	3.00833968e+02
406             	3.00833682e+02
407             	3.00834067e+02
408             	3.00833942e+02
409             	3.00834128e+02
410             	3.00834341e+02
411             	3.00834569e+02
412             	3.00834351e+02
413             	3.00834201e+02
414             	3.00834118e+02
415             	3.00834692e+02
416             	3.00835040e+02
417             	3.00835343e+02
418             	3.00835477e+02
419             	3.00835584e+02
420             	3.00835641e+02
421             	3.00835797e+02
422             	3.00835854e+02
423             	3.00835975e+02
424             	3.00836086e+02
425             	3.00836271e+02
426             	3.00836452e+02
427             	3.00836755e+02
428             	3.00837394e+02
429             	3.00837694e+02
430             	3.00837667e+02
431             	3.00837742e+02
432             	3.00837775e+02
433             	3.00837772e+02
434             	3.00837450e+02
435             	3.00837275e+02
436             	3.00837749e+02
437             	3.00837340e+02
438             	3.00837074e+02
439             	3.00836596e+02
440             	3.00836138e+02
441             	3.00835861e+02
442             	3.00835678e+02
443             	3.00835746e+02
444             	3.00835756e+02
445             	3.00835710e+02
446             	3.00835692e+02
447             	3.00835315e+02
448             	3.00834813e+02
449             	3.00834409e+02
450             	3.00833975e+02
451             	3.00833909e+02
452             	3.00833756e+02
453             	3.00833888e+02
454             	3.00833599e+02
455             	3.00833498e+02
456             	3.00833500e+02
457             	3.00834103e+02
458             	3.00834142e+02
459             	3.00834460e+02
460             	3.00834322e+02
461             	3.00833835e+02
462             	3.00833713e+02
463             	3.00833749e+02
464             	3.00833530e+02
465             	3.00833189e+02
466             	3.00834130e+02
467             	3.00834376e+02
468             	3.00834649e+02
469             	3.00834943e+02
470             	3.00835107e+02
471             	3.00834891e+02
472             	3.00834610e+02
473             	3.00834362e+02
474             	3.00834243e+02
475             	3.00834117e+02
476             	3.00834108e+02
477             	3.00834048e+02
478             	3.00834039e+02
479             	3.00834154e+02
480             	3.00834262e+02
481             	3.00834201e+02
482             	3.00834113e+02
483             	3.00833980e+02
484             	3.00833940e+02
485             	3.00833903e+02
486             	3.00833949e+02
487             	3.00833940e+02
488             	3.00833971e+02
489             	3.00834032e+02
490             	3.00834223e+02
491             	3.00834560e+02
492             	3.00834773e+02
493             	3.00834963e+02
494             	3.00835386e+02
495             	3.00835103e+02
496             	3.00835067e+02
497             	3.00834623e+02
498             	3.00834421e+02
499             	3.00834268e+02
500             	3.00834221e+02
501             	3.00834301e+02
502             	3.00834352e+02
503             	3.00834317e+02
504             	3.00834250e+02
505             	3.00834059e+02
506             	3.00833985e+02
507             	3.00833895e+02
508             	3.00833917e+02
509             	3.00833824e+02
510             	3.00833797e+02
511             	3.00833734e+02
512             	3.00833769e+02
513             	3.00833740e+02
514             	3.00833795e+02
515             	3.00833686e+02
516             	3.00833530e+02
517             	3.00833917e+02
518             	3.00834465e+02
519             	3.00834772e+02
520             	3.00834992e+02
521             	3.00834873e+02
522             	3.00834834e+02
523             	3.00834510e+02
524             	3.00834355e+02
525             	3.00834131e+02
526             	3.00834035e+02
527             	3.00833950e+02
528             	3.00833889e+02
529             	3.00833877e+02
530             	3.00833981e+02
531             	3.00833914e+02
532             	3.00833877e+02
533             	3.00833728e+02
534             	3.00833513e+02
535             	3.00832962e+02
536             	3.00832547e+02
537             	3.00832195e+02
538             	3.00831952e+02
539             	3.00832074e+02
540             	3.00831879e+02
541             	3.00831752e+02
542             	3.00831703e+02
543             	3.00831614e+02
544             	3.00831646e+02
545             	3.00831531e+02
546             	3.00831459e+02
547             	3.00831349e+02
548             	3.00831356e+02
549             	3.00831303e+02
550             	3.00831365e+02
551             	3.00831357e+02
552             	3.00831467e+02
553             	3.00831512e+02
554             	3.00831775e+02
555             	3.00831757e+02
556             	3.00831679e+02
557             	3.00831606e+02
558             	3.00831863e+02
559             	3.00831673e+02
560             	3.00831500e+02
561             	3.00831573e+02
562             	3.00830860e+02
563             	3.00831120e+02
564             	3.00831415e+02
565             	3.00831576e+02
566             	3.00831635e+02
567             	3.00831489e+02
568             	3.00831438e+02
569             	3.00831325e+02
570             	3.00831142e+02
571             	3.00830911e+02
572             	3.00831237e+02
573             	3.00830724e+02
574             	3.00830494e+02
575             	3.00830321e+02
576             	3.00830340e+02
577             	3.00830403e+02
578             	3.00830529e+02
579             	3.00830651e+02
580             	3.00831187e+02
581             	3.00831271e+02
582             	3.00831286e+02
583             	3.00831198e+02
584             	3.00831159e+02
585             	3.00831106e+02
586             	3.00830849e+02
587             	3.00830855e+02
588             	3.00829972e+02
589             	3.00830409e+02
590             	3.00830955e+02
591             	3.00830998e+02
592             	3.00831085e+02
593             	3.00831041e+02
594             	3.00830869e+02
595             	3.00832018e+02
596             	3.00830948e+02
597             	3.00830430e+02
598             	3.00830206e+02
599             	3.00830187e+02
600             	3.00830317e+02
601             	3.00830557e+02
602             	3.00831188e+02
603             	3.00831241e+02
604             	3.00831433e+02
605             	3.00831420e+02
606             	3.00831719e+02
607             	3.00831804e+02
608             	3.00831667e+02
609             	3.00831300e+02
610             	3.00831059e+02
611             	3.00830829e+02
612             	3.00830797e+02
613             	3.00830779e+02
614             	3.00830881e+02
615             	3.00830822e+02
616             	3.00831265e+02
617             	3.00831225e+02
618             	3.00831227e+02
619             	3.00831136e+02
620             	3.00831031e+02
621             	3.00830726e+02
622             	3.00830587e+02
623             	3.00830538e+02
624             	3.00830598e+02
625             	3.00830965e+02
626             	3.00830749e+02
627             	3.00830962e+02
628             	3.00831209e+02
629             	3.00830357e+02
630             	3.00830047e+02
631             	3.00830018e+02
632             	3.00829974e+02
633             	3.00830022e+02
634             	3.00830244e+02
635             	3.00830535e+02
636             	3.00830973e+02
637             	3.00831019e+02
638             	3.00830953e+02
639             	3.00830748e+02
640             	3.00830866e+02
641             	3.00830793e+02
642             	3.00830373e+02
643             	3.00830513e+02
644             	3.00830716e+02
645             	3.00830923e+02
646             	3.00831028e+02
647             	3.00830963e+02
648             	3.00831009e+02
649             	3.00830969e+02
650             	3.00831132e+02
651             	3.00831210e+02
652             	3.00831048e+02
653             	3.00831002e+02
654             	3.00831018e+02
655             	3.00831141e+02
656             	3.00831594e+02
657             	3.00831709e+02
658             	3.00831841e+02
659             	3.00831825e+02
660             	3.00831816e+02
661             	3.00831596e+02
662             	3.00831467e+02
663             	3.00831256e+02
664             	3.00831054e+02
665             	3.00830743e+02
666             	3.00830543e+02
667             	3.00830360e+02
668             	3.00830307e+02
669             	3.00830250e+02
670             	3.00830196e+02
671             	3.00830074e+02
672             	3.00829971e+02
673             	3.00829781e+02
674             	3.00829661e+02
675             	3.00829562e+02
676             	3.00829501e+02
677             	3.00829558e+02
678             	3.00829699e+02
679             	3.00829828e+02
680             	3.00830087e+02
681             	3.00829809e+02
682             	3.00829845e+02
683             	3.00829787e+02
684             	3.00829988e+02
685             	3.00830550e+02
686             	3.00830735e+02
687             	3.00831046e+02
688             	3.00831336e+02
689             	3.00831172e+02
690             	3.00830864e+02
691             	3.00830632e+02
692             	3.00830546e+02
693             	3.00830471e+02
694             	3.00830625e+02
695             	3.00830803e+02
696             	3.00829998e+02
697             	3.00829240e+02
698             	3.00829810e+02
699             	3.00830455e+02
700             	3.00830655e+02
701             	3.00830073e+02
702             	3.00830753e+02
703             	3.00829726e+02
704             	3.00829302e+02
705             	3.00829078e+02
706             	3.00829113e+02
707             	3.00829475e+02
708             	3.00829642e+02
709             	3.00830166e+02
710             	3.00830151e+02
711             	3.00830212e+02
712             	3.00830254e+02
713             	3.00830284e+02
714             	3.00830120e+02
715             	3.00830060e+02
716             	3.00830000e+02
717             	3.00829562e+02
718             	3.00829804e+02
719             	3.00828642e+02
720             	3.00829174e+02
721             	3.00829922e+02
722             	3.00829898e+02
723             	3.00830030e+02
724             	3.00830008e+02
725             	3.00829577e+02
726             	3.00829476e+02
727             	3.00830921e+02
728             	3.00829619e+02
729             	3.00829210e+02
730             	3.00829045e+02
731             	3.00829131e+02
732             	3.00829301e+02
733             	3.00829558e+02
734             	3.00829946e+02
735             	3.00830168e+02
736             	3.00830372e+02
737             	3.00830590e+02
738             	3.00830796e+02
739             	3.00831122e+02
740             	3.00831364e+02
741             	3.00831125e+02
742             	3.00830688e+02
743             	3.00829346e+02
744             	3.00829683e+02
745             	3.00829976e+02
746             	3.00830047e+02
747             	3.00830297e+02
748             	3.00830081e+02
749             	3.00830254e+02
750             	3.00830241e+02
751             	3.00832050e+02
752             	3.00830475e+02
753             	3.00829983e+02
754             	3.00829563e+02
755             	3.00829476e+02
756             	3.00829324e+02
757             	3.00829656e+02
758             	3.00830003e+02
759             	3.00830171e+02
760             	3.00830461e+02
761             	3.00830708e+02
762             	3.00831062e+02
763             	3.00831520e+02
764             	3.00831432e+02
765             	3.00831082e+02
766             	3.00830591e+02
767             	3.00830371e+02
768             	3.00830157e+02
769             	3.00830062e+02
770             	3.00830449e+02
771             	3.00830596e+02
772             	3.00830606e+02
773             	3.00830782e+02
774             	3.00831040e+02
775             	3.00831223e+02
776             	3.00831310e+02
777             	3.00831251e+02
778             	3.00830994e+02
779             	3.00830785e+02
780             	3.00831059e+02
781             	3.00831422e+02
782             	3.00831283e+02
783             	3.00831500e+02
784             	3.00831524e+02
785             	3.00831636e+02
786             	3.00831317e+02
787             	3.00831091e+02
788             	3.00830865e+02
789             	3.00830727e+02
790             	3.00831033e+02
791             	3.00830776e+02
792             	3.00830623e+02
793             	3.00830612e+02
794             	3.00831602e+02
795             	3.00831107e+02
796             	3.00830899e+02
797             	3.00830876e+02
798             	3.00830869e+02
799             	3.00830915e+02
800             	3.00830935e+02
801             	3.00830753e+02
802             	3.00830349e+02
803             	3.00831144e+02
804             	3.00831323e+02
805             	3.00831532e+02
806             	3.00831701e+02
807             	3.00831807e+02
808             	3.00831550e+02
809             	3.00831368e+02
810             	3.00831190e+02
811             	3.00831114e+02
812             	3.00831124e+02
813             	3.00831125e+02
814             	3.00831170e+02
815             	3.00831439e+02
816             	3.00831816e+02
817             	3.00832026e+02
818             	3.00832098e+02
819             	3.00832167e+02
820             	3.00832166e+02
821             	3.00832321e+02
822             	3.00832222e+02
823             	3.00832013e+02
824             	3.00831703e+02
825             	3.00831469e+02
826             	3.00831289e+02
827             	3.00831190e+02
828             	3.00831018e+02
829             	3.00830912e+02
830             	3.00830910e+02
831             	3.00830985e+02
832             	3.00830834e+02
833             	3.00831500e+02
834             	3.00830901e+02
835             	3.00830667e+02
836             	3.00830631e+02
837             	3.00830652e+02
838             	3.00830608e+02
839             	3.00830660e+02
840             	3.00830655e+02
841             	3.00830820e+02
842             	3.00830823e+02
843             	3.00831191e+02
844             	3.00831572e+02
845             	3.00830856e+02
846             	3.00831601e+02
847             	3.00831629e+02
848             	3.00831853e+02
849             	3.00831871e+02
850             	3.00831605e+02
851             	3.00831145e+02
852             	3.00831394e+02
853             	3.00830894e+02
854             	3.00830702e+02
855             	3.00830841e+02
856             	3.00831064e+02
857             	3.00831015e+02
858             	3.00831077e+02
859             	3.00831153e+02
860             	3.00831238e+02
861             	3.00831348e+02
862             	3.00831073e+02
863             	3.00830875e+02
864             	3.00831128e+02
865             	3.00831315e+02
866             	3.00831367e+02
867             	3.00831247e+02
868             	3.00830728e+02
869             	3.00830852e+02
870             	3.00830889e+02
871             	3.00830946e+02
872             	3.00830911e+02
873             	3.00830793e+02
874             	3.00830768e+02
875             	3.00831009e+02
876             	3.00830837e+02
877             	3.00831463e+02
878             	3.00831247e+02
879             	3.00831294e+02
880             	3.00831400e+02
881             	3.00831632e+02
882             	3.00831576e+02
883             	3.00831293e+02
884             	3.00831089e+02
885             	3.00832011e+02
886             	3.00832033e+02
887             	3.00832209e+02
888             	3.00832260e+02
889             	3.00832459e+02
890             	3.00832065e+02
891             	3.00831685e+02
892             	3.00831365e+02
893             	3.00831221e+02
894             	3.00831155e+02
895             	3.00831201e+02
896             	3.00831572e+02
897             	3.00831758e+02
898             	3.00831743e+02
899             	3.00831632e+02
900             	3.00831561e+02
901             	3.00831566e+02
902             	3.00831434e+02
903             	3.00831320e+02
904             	3.00831078e+02
905             	3.00830993e+02
906             	3.00831049e+02
907             	3.00831133e+02
908             	3.00831190e+02
909             	3.00831252e+02
910             	3.00831246e+02
911             	3.00831298e+02
912             	3.00831336e+02
913             	3.00831391e+02
914             	3.00831451e+02
915             	3.00831578e+02
916             	3.00831282e+02
917             	3.00831314e+02
918             	3.00831328e+02
919             	3.00831410e+02
920             	3.00831432e+02
921             	3.00831507e+02
922             	3.00831396e+02
923             	3.00831731e+02
924             	3.00832051e+02
925             	3.00832130e+02
926             	3.00832144e+02
927             	3.00832003e+02
928             	3.00831868e+02
929             	3.00831777e+02
930             	3.00831576e+02
931             	3.00831442e+02
932             	3.00831308e+02
933             	3.00831268e+02