# Region        : cellZone component_2
# Cells         : 64
# Volume        : 8.65606865e-02
# Time          	volAverage(T)
1               	3.00528358e+02
2               	3.01051020e+02
3               	3.01537746e+02
4               	3.02006128e+02
5               	3.02465560e+02
6               	3.02919089e+02
7               	3.03366978e+02
8               	3.03813432e+02
9               	3.04258868e+02
10              	3.04694321e+02
11              	3.05118779e+02
12              	3.05534412e+02
13              	3.05941771e+02
14              	3.06345400e+02
15              	3.06745339e+02
16              	3.07139432e+02
17              	3.07525890e+02
18              	3.07906724e+02
19              	3.08282443e+02
20              	3.08656801e+02
21              	3.09034755e+02
22              	3.09409045e+02
23              	3.09782136e+02
24              	3.10155079e+02
25              	3.10527265e+02
26              	3.10898362e+02
27              	3.11269267e+02
28              	3.11638258e+02
29              	3.12007975e+02
30              	3.12368435e+02
31              	3.12731257e+02
32              	3.13086824e+02
33              	3.13434734e+02
34              	3.13770681e+02
35              	3.14107109e+02
36              	3.14441330e+02
37              	3.14770667e+02
38              	3.15102083e+02
39              	3.15429014e+02
40              	3.15739209e+02
41              	3.16035489e+02
42              	3.16321370e+02
43              	3.16596735e+02
44              	3.16856177e+02
45              	3.17102635e+02
46              	3.17344104e+02
47              	3.17578745e+02
48              	3.17810803e+02
49              	3.18042792e+02
50              	3.18275436e+02
51              	3.18510194e+02
52              	3.18752048e+02
53              	3.18999304e+02
54              	3.19241616e+02
55              	3.19482183e+02
56              	3.19720448e+02
57              	3.19970083e+02
58              	3.20220102e+02
59              	3.20453220e+02
60              	3.20675707e+02
61              	3.20875666e+02
62              	3.21064888e+02
63              	3.21258649e+02
64              	3.21441287e+02
65              	3.21621132e+02
66              	3.21788911e+02
67              	3.21944362e+02
68              	3.22097810e+02
69              	3.22256132e+02
70              	3.22414979e+02
71              	3.22573124e+02
72              	3.22728807e+02
73              	3.22879448e+02
74              	3.23029640e+02
75              	3.23177890e+02
76              	3.23323648e+02
77              	3.23468009e+02
78              	3.23614305e+02
79              	3.23761095e+02
80              	3.23909940e+02
81              	3.24061040e+02
82              	3.24216853e+02
83              	3.24379693e+02
84              	3.24548322e+02
85              	3.24703335e+02
86              	3.24845560e+02
87              	3.24970967e+02
88              	3.25094406e+02
89              	3.25208660e+02
90              	3.25317803e+02
91              	3.25425636e+02
92              	3.25529694e+02
93              	3.25632548e+02
94              	3.25738129e+02
95              	3.25840862e+02
96              	3.25947068e+02
97              	3.26052912e+02
98              	3.26160278e+02
99              	3.26271916e+02
100             	3.26380292e+02
101             	3.26486972e+02
102             	3.26593891e+02
103             	3.26709395e+02
104             	3.26810119e+02
105             	3.26889396e+02
106             	3.26970629e+02
107             	3.27056887e+02
108             	3.27142401e+02
109             	3.27226037e+02
110             	3.27310402e+02
111             	3.27396032e+02
112             	3.27467344e+02
113             	3.27537947e+02
114             	3.27618152e+02
115             	3.27692872e+02
116             	3.27748417e+02
117             	3.27811710e+02
118             	3.27881804e+02
119             	3.27953077e+02
120             	3.28026232e+02
121             	3.28101119e+02
122             	3.28175374e+02
123             	3.28247119e+02
124             	3.28315590e+02
125             	3.28387042e+02
126             	3.28464831e+02
127             	3.28542221e+02
128             	3.28620358e+02
129             	3.28685248e+02
130             	3.28755225e+02
131             	3.28823288e+02
132             	3.28891165e+02
133             	3.28954343e+02
134             	3.29010899e+02
135             	3.29060331e+02
136             	3.29115547e+02
137             	3.29174186e+02
138             	3.29228423e+02
139             	3.29283823e+02
140             	3.29339316e+02
141             	3.29395744e+02
142             	3.29452160e+02
143             	3.29504812e+02
144             	3.29546039e+02
145             	3.29589500e+02
146             	3.29634977e+02
147             	3.29679257e+02
148             	3.29718603e+02
149             	3.29757896e+02
150             	3.29801174e+02
151             	3.29844624e+02
152             	3.29889372e+02
153             	3.29931294e+02
154             	3.29976063e+02
155             	3.30023306e+02
156             	3.30070010e+02
157             	3.30118354e+02
158             	3.30165494e+02
159             	3.30205817e+02
160             	3.30247771e+02
161             	3.30288523e+02
162             	3.30326509e+02
163             	3.30361742e+02
164             	3.30394831e+02
165             	3.30426326e+02
166             	3.30453172e+02
167             	3.30481292e+02
168             	3.30513566e+02
169             	3.30539899e+02
170             	3.30571974e+02
171             	3.30608390e+02
172             	3.30644479e+02
173             	3.30680889e+02
174             	3.30720732e+02
175             	3.30760337e+02
176             	3.30798829e+02
177             	3.30835867e+02
178             	3.30871044e+02
179             	3.30901042e+02
180             	3.30933890e+02
181             	3.30960418e+02
182             	3.30987183e+02
183             	3.31012871e+02
184             	3.31032846e+02
185             	3.31054697e+02
186             	3.31074864e+02
187             	3.31090797e+02
188             	3.31112136e+02
189             	3.31141982e+02
190             	3.31160952e+02
191             	3.31180892e+02
192             	3.31203990e+02
193             	3.31228547e+02
194             	3.31253565e+02
195             	3.31278464e+02
196             	3.31302614e+02
197             	3.31324743e+02
198             	3.31344326e+02
199             	3.31366782e+02
200             	3.31387679e+02
201             	3.31406065e+02
202             	3.31424778e+02
203             	3.31442016e+02
204             	3.31457752e+02
205             	3.31472278e+02
206             	3.31485999e+02
207             	3.31498368e+02
208             	3.31510345e+02
209             	3.31524748e+02
210             	3.31540765e+02
211             	3.31550303e+02
212             	3.31561197e+02
213             	3.31573850e+02
214             	3.31587485e+02
215             	3.31600566e+02
216             	3.31615368e+02
217             	3.31626534e+02
218             	3.31638234e+02
219             	3.31641403e+02
220             	3.31646050e+02
221             	3.31655592e+02
222             	3.31666096e+02
223             	3.31675655e+02
224             	3.31684284e+02
225             	3.31690214e+02
226             	3.31697812e+02
227             	3.31707899e+02
228             	3.31714825e+02
229             	3.31721545e+02
230             	3.31732849e+02
231             	3.31740387e+02
232             	3.31748395e+02
233             	3.31758127e+02
234             	3.31769162e+02
235             	3.31780903e+02
236             	3.31792912e+02
237             	3.31804881e+02
238             	3.31815823e+02
239             	3.31826353e+02
240             	3.31836174e+02
241             	3.31846384e+02
242             	3.31856683e+02
243             	3.31861190e+02
244             	3.31867320e+02
245             	3.31873648e+02
246             	3.31879271e+02
247             	3.31883928e+02
248             	3.31887742e+02
249             	3.31891035e+02
250             	3.31892232e+02
251             	3.31895037e+02
252             	3.31899748e+02
253             	3.31905912e+02
254             	3.31908745e+02
255             	3.31912174e+02
256             	3.31916988e+02
257             	3.31922740e+02
258             	3.31928921e+02
259             	3.31935521e+02
260             	3.31941738e+02
261             	3.31945992e+02
262             	3.31951324e+02
263             	3.31956237e+02
264             	3.31958228e+02
265             	3.31961957e+02
266             	3.31964777e+02
267             	3.31968248e+02
268             	3.31971363e+02
269             	3.31974343e+02
270             	3.31977098e+02
271             	3.31979902e+02
272             	3.31982638e+02
273             	3.31984598e+02
274             	3.31987625e+02
275             	3.31990479e+02
276             	3.31993683e+02
277             	3.31997591e+02
278             	3.32001797e+02
279             	3.32005126e+02
280             	3.32009465e+02
281             	3.32014056e+02
282             	3.32018220e+02
283             	3.32022361e+02
284             	3.32026162e+02
285             	3.32028854e+02
286             	3.32031113e+02
287             	3.32033416e+02
288             	3.32035179e+02
289             	3.32036618e+02
290             	3.32037902e+02
291             	3.32039143e+02
292             	3.32040339e+02
293             	3.32041408e+02
294             	3.32040829e+02
295             	3.32040346e+02
296             	3.32041358e+02
297             	3.32042575e+02
298             	3.32043641e+02
299             	3.32044749e+02
300             	3.32045858e+02
301             	3.32046317e+02
302             	3.32046649e+02
303             	3.32047054e+02
304             	3.32048069e+02
305             	3.32049347e+02
306             	3.32051141e+02
307             	3.32053246e+02
308             	3.32055628e+02
309             	3.32057496e+02
310             	3.32060649e+02
311             	3.32064050e+02
312             	3.32067236e+02
313             	3.32070875e+02
314             	3.32073450e+02
315             	3.32075486e+02
316             	3.32077392e+02
317             	3.32079163e+02
318             	3.32080864e+02
319             	3.32081943e+02
320             	3.32082927e+02
321             	3.32083678e+02
322             	3.32083982e+02
323             	3.32085038e+02
324             	3.32084982e+02
325             	3.32086212e+02
326             	3.32087863e+02
327             	3.32089535e+02
328             	3.32090915e+02
329             	3.32092327e+02
330             	3.32093622e+02
331             	3.32094741e+02
332             	3.32095710e+02
333             	3.32097015e+02
334             	3.32097847e+02
335             	3.32098570e+02
336             	3.32099388e+02
337             	3.32100413e+02
338             	3.32101763e+02
339             	3.32103027e+02
340             	3.32104411e+02
341             	3.32106038e+02
342             	3.32107913e+02
343             	3.32109955e+02
344             	3.32111783e+02
345             	3.32114186e+02
346             	3.32116622e+02
347             	3.32119112e+02
348             	3.32121558e+02
349             	3.32123885e+02
350             	3.32126047e+02
351             	3.32128149e+02
352             	3.32130300e+02
353             	3.32132221e+02
354             	3.32133493e+02
355             	3.32134645e+02
356             	3.32135822e+02
357             	3.32136966e+02
358             	3.32138042e+02
359             	3.32138957e+02
360             	3.32139837e+02
361             	3.32140649e+02
362             	3.32141713e+02
363             	3.32142742e+02
364             	3.32143720e+02
365             	3.32144715e+02
366             	3.32145677e+02
367             	3.32146689e+02
368             	3.32147772e+02
369             	3.32148693e+02
370             	3.32149913e+02
371             	3.32151199e+02
372             	3.32152515e+02
373             	3.32153865e+02
374             	3.32155266e+02
375             	3.32156671e+02
376             	3.32158185e+02
377             	3.32160049e+02
378             	3.32161838e+02
379             	3.32163841e+02
380             	3.32165841e+02
381             	3.32167787e+02
382             	3.32169661e+02
383             	3.32171524e+02
384             	3.32173050e+02
385             	3.32174381e+02
386             	3.32176069e+02
387             	3.32177143e+02
388             	3.32178051e+02
389             	3.32178955e+02
390             	3.32179673e+02
391             	3.32180303e+02
392             	3.32181171e+02
393             	3.32181956e+02
394             	3.32182666e+02
395             	3.32183376e+02
396             	3.32184067e+02
397             	3.32184555e+02
398             	3.32185009e+02
399             	3.32185482e+02
400             	3.32186278e+02
401             	3.32187050e+02
402             	3.32187705e+02
403             	3.32188289e+02
404             	3.32188996e+02
405             	3.32189885e+02
406             	3.32190853e+02
407             	3.32191816e+02
408             	3.32191163e+02
409             	3.32192072e+02
410             	3.32193422e+02
411             	3.32194687e+02
412             	3.32195766e+02
413             	3.32196759e+02
414             	3.32197848e+02
415             	3.32199071e+02
416             	3.32199639e+02
417             	3.32200180e+02
418             	3.32200898e+02
419             	3.32201767e+02
420             	3.32202735e+02
421             	3.32203698e+02
422             	3.32204918e+02
423             	3.32206310e+02
424             	3.32207759e+02
425             	3.32209183e+02
426             	3.32210609e+02
427             	3.32212010e+02
428             	3.32213365e+02
429             	3.32214654e+02
430             	3.32216311e+02
431             	3.32217438e+02
432             	3.32218389e+02
433             	3.32219341e+02
434             	3.32220352e+02
435             	3.32221392e+02
436             	3.32222311e+02
437             	3.32223260e+02
438             	3.32224214e+02
439             	3.32225245e+02
440             	3.32226240e+02
441             	3.32227260e+02
442             	3.32228299e+02
443             	3.32229352e+02
444             	3.32230469e+02
445             	3.32231654e+02
446             	3.32232965e+02
447             	3.32234223e+02
448             	3.32235570e+02
449             	3.32237056e+02
450             	3.32238605e+02
451             	3.32240213e+02
452             	3.32241856e+02
453             	3.32243544e+02
454             	3.32245171e+02
455             	3.32246870e+02
456             	3.32248488e+02
457             	3.32250155e+02
458             	3.32251812e+02
459             	3.32253367e+02
460             	3.32254863e+02
461             	3.32256319e+02
462             	3.32257716e+02
463             	3.32259083e+02
464             	3.32260427e+02
465             	3.32261853e+02
466             	3.32262935e+02
467             	3.32263939e+02
468             	3.32264928e+02
469             	3.32265881e+02
470             	3.32266827e+02
471             	3.32267663e+02
472             	3.32268467e+02
473             	3.32269381e+02
474             	3.32270260e+02
475             	3.32271052e+02
476             	3.32271758e+02
477             	3.32271556e+02
478             	3.32272144e+02
479             	3.32272978e+02
480             	3.32273734e+02
481             	3.32274308e+02
482             	3.32274792e+02
483             	3.32275611e+02
484             	3.32276165e+02
485             	3.32276703e+02
486             	3.32277321e+02
487             	3.32277926e+02
488             	3.32278595e+02
489             	3.32279626e+02
490             	3.32281300e+02
491             	3.32282291e+02
492             	3.32283115e+02
493             	3.32284014e+02
494             	3.32285067e+02
495             	3.32286063e+02
496             	3.32287059e+02
497             	3.32287664e+02
498             	3.32288024e+02
499             	3.32288857e+02
500             	3.32289657e+02
501             	3.32290197e+02
502             	3.32290344e+02
503             	3.32291028e+02
504             	3.32291938e+02
505             	3.32293367e+02
506             	3.32293708e+02
507             	3.32294043e+02
508             	3.32294705e+02
509             	3.32295589e+02
510             	3.32296572e+02
511             	3.32297638e+02
512             	3.32298950e+02
513             	3.32300181e+02
514             	3.32301477e+02
515             	3.32302942e+02
516             	3.32304407e+02
517             	3.32305917e+02
518             	3.32307463e+02
519             	3.32308976e+02
520             	3.32310360e+02
521             	3.32311738e+02
522             	3.32313046e+02
523             	3.32314220e+02
524             	3.32315256e+02
525             	3.32316190e+02
526             	3.32316998e+02
527             	3.32317721e+02
528             	3.32318391e+02
529             	3.32319006e+02
530             	3.32319616e+02
531             	3.32320238e+02
532             	3.32320867e+02
533             	3.32321537e+02
534             	3.32322268e+02
535             	3.32323036e+02
536             	3.32323852e+02
537             	3.32324730e+02
538             	3.32325760e+02
539             	3.32326705e+02
540             	3.32327641e+02
541             	3.32328542e+02
542             	3.32329460e+02
543             	3.32330435e+02
544             	3.32331464e+02
545             	3.32332347e+02
546             	3.32333200e+02
547             	3.32334040e+02
548             	3.32334798e+02
549             	3.32335244e+02
550             	3.32335977e+02
551             	3.32336672e+02
552             	3.32337203e+02
553             	3.32337634e+02
554             	3.32338012e+02
555             	3.32338332e+02
556             	3.32338598e+02
557             	3.32338717e+02
558             	3.32338789e+02
559             	3.32338863e+02
560             	3.32338912e+02
561             	3.32338941e+02
562             	3.32339002e+02
563             	3.32339077e+02
564             	3.32339140e+02
565             	3.32339412e+02
566             	3.32339863e+02
567             	3.32340176e+02
568             	3.32340685e+02
569             	3.32341018e+02
570             	3.32341333e+02
571             	3.32341684e+02
572             	3.32342097e+02
573             	3.32342553e+02
574             	3.32342980e+02
575             	3.32343389e+02
576             	3.32343783e+02
577             	3.32344131e+02
578             	3.32344442e+02
579             	3.32344716e+02
580             	3.32345095e+02
581             	3.32345333e+02
582             	3.32345529e+02
583             	3.32345723e+02
584             	3.32345883e+02
585             	3.32345789e+02
586             	3.32345903e+02
587             	3.32346080e+02
588             	3.32346183e+02
589             	3.32346236e+02
590             	3.32346265e+02
591             	3.32346280e+02
592             	3.32346273e+02
593             	3.32346320e+02
594             	3.32346422e+02
595             	3.32346514e+02
596             	3.32346660e+02
597             	3.32346846e+02
598             	3.32347049e+02
599             	3.32347284e+02
600             	3.32347561e+02
601             	3.32347882e+02
602             	3.32348230e+02
603             	3.32348584e+02
604             	3.32349154e+02
605             	3.32349552e+02
606             	3.32349926e+02
607             	3.32350337e+02
608             	3.32350736e+02
609             	3.32351100e+02
610             	3.32351470e+02
611             	3.32351862e+02
612             	3.32352254e+02
613             	3.32352579e+02
614             	3.32352940e+02
615             	3.32353226e+02
616             	3.32353459e+02
617             	3.32353706e+02
618             	3.32353747e+02
619             	3.32354050e+02
620             	3.32354395e+02
621             	3.32354674e+02
622             	3.32354887e+02
623             	3.32355086e+02
624             	3.32355308e+02
625             	3.32355539e+02
626             	3.32355866e+02
627             	3.32356137e+02
628             	3.32356408e+02
629             	3.32356697e+02
630             	3.32357009e+02
631             	3.32357550e+02
632             	3.32357947e+02
633             	3.32358323e+02
634             	3.32358725e+02
635             	3.32359138e+02
636             	3.32359542e+02
637             	3.32360030e+02
638             	3.32360465e+02
639             	3.32360912e+02
640             	3.32361278e+02
641             	3.32361427e+02
642             	3.32361702e+02
643             	3.32361937e+02
644             	3.32361995e+02
645             	3.32362224e+02
646             	3.32362442e+02
647             	3.32362610e+02
648             	3.32362749e+02
649             	3.32362865e+02
650             	3.32363007e+02
651             	3.32363188e+02
652             	3.32363376e+02
653             	3.32363607e+02
654             	3.32363875e+02
655             	3.32364146e+02
656             	3.32364413e+02
657             	3.32364727e+02
658             	3.32365106e+02
659             	3.32365490e+02
660             	3.32365995e+02
661             	3.32366370e+02
662             	3.32366693e+02
663             	3.32366998e+02
664             	3.32367331e+02
665             	3.32367704e+02
666             	3.32368042e+02
667             	3.32368356e+02
668             	3.32368651e+02
669             	3.32368895e+02
670             	3.32369080e+02
671             	3.32369266e+02
672             	3.32369475e+02
673             	3.32369649e+02
674             	3.32369925e+02
675             	3.32370091e+02
676             	3.32370207e+02
677             	3.32370313e+02
678             	3.32370468e+02
679             	3.32370680e+02
680             	3.32370840e+02
681             	3.32370937e+02
682             	3.32371249e+02
683             	3.32371583e+02
684             	3.32371892e+02
685             	3.32372195e+02
686             	3.32372469e+02
687             	3.32372761e+02
688             	3.32373040e+02
689             	3.32373256e+02
690             	3.32373450e+02
691             	3.32373683e+02
692             	3.32373971e+02
693             	3.32374254e+02
694             	3.32374547e+02
695             	3.32374860e+02
696             	3.32375250e+02
697             	3.32375569e+02
698             	3.32375915e+02
699             	3.32376336e+02
700             	3.32376765e+02
701             	3.32377210e+02
702             	3.32377646e+02
703             	3.32378032e+02
704             	3.32378347e+02
705             	3.32378583e+02
706             	3.32378868e+02
707             	3.32379091e+02
708             	3.32379257e+02
709             	3.32379374e+02
710             	3.32379428e+02
711             	3.32379420e+02
712             	3.32379413e+02
713             	3.32379439e+02
714             	3.32379468e+02
715             	3.32379523e+02
716             	3.32379578e+02
717             	3.32379679e+02
718             	3.32379798e+02
719             	3.32379982e+02
720             	3.32380245e+02
721             	3.32380540e+02
722             	3.32380882e+02
723             	3.32381274e+02
724             	3.32381685e+02
725             	3.32382081e+02
726             	3.32382720e+02
727             	3.32383196e+02
728             	3.32383631e+02
729             	3.32384113e+02
730             	3.32384635e+02
731             	3.32385135e+02
732             	3.32385585e+02
733             	3.32385983e+02
734             	3.32386447e+02
735             	3.32386866e+02
736             	3.32387091e+02
737             	3.32387393e+02
738             	3.32387639e+02
739             	3.32387878e+02
740             	3.32388014e+02
741             	3.32388083e+02
742             	3.32388143e+02
743             	3.32388215e+02
744             	3.32388266e+02
745             	3.32388324e+02
746             	3.32388398e+02
747             	3.32388474e+02
748             	3.32388535e+02
749             	3.32388636e+02
750             	3.32388776e+02
751             	3.32389010e+02
752             	3.32389273e+02
753             	3.32389546e+02
754             	3.32389786e+02
755             	3.32389983e+02
756             	3.32390206e+02
757             	3.32390470e+02
758             	3.32390906e+02
759             	3.32391131e+02
760             	3.32391329e+02
761             	3.32391548e+02
762             	3.32391777e+02
763             	3.32392055e+02
764             	3.32392258e+02
765             	3.32392574e+02
766             	3.32392910e+02
767             	3.32393218e+02
768             	3.32393464e+02
769             	3.32393649e+02
770             	3.32393839e+02
771             	3.32394059e+02
772             	3.32394210e+02
773             	3.32394342e+02
774             	3.32394498e+02
775             	3.32394592e+02
776             	3.32394618e+02
777             	3.32394649e+02
778             	3.32394664e+02
779             	3.32394748e+02
780             	3.32394795e+02
781             	3.32394920e+02
782             	3.32395032e+02
783             	3.32395106e+02
784             	3.32395200e+02
785             	3.32395339e+02
786             	3.32395460e+02
787             	3.32395578e+02
788             	3.32395693e+02
789             	3.32395780e+02
790             	3.32395829e+02
791             	3.32395898e+02
792             	3.32396008e+02
793             	3.32396105e+02
794             	3.32396203e+02
795             	3.32396314e+02
796             	3.32396399e+02
797             	3.32396464e+02
798             	3.32396561e+02
799             	3.32396708e+02
800             	3.32396844e+02
801             	3.32396981e+02
802             	3.32397139e+02
803             	3.32397249e+02
804             	3.32397321e+02
805             	3.32397417e+02
806             	3.32397561e+02
807             	3.32397731e+02
808             	3.32397846e+02
809             	3.32397957e+02
810             	3.32398048e+02
811             	3.32398111e+02
812             	3.32398199e+02
813             	3.32398319e+02
814             	3.32398423e+02
815             	3.32398529e+02
816             	3.32398638e+02
817             	3.32398721e+02
818             	3.32398770e+02
819             	3.32398846e+02
820             	3.32398965e+02
821             	3.32399077e+02
822             	3.32399191e+02
823             	3.32399322e+02
824             	3.32399428e+02
825             	3.32399508e+02
826             	3.32399564e+02
827             	3.32399715e+02
828             	3.32399845e+02
829             	3.32399983e+02
830             	3.32400123e+02
831             	3.32400221e+02
832             	3.32400275e+02
833             	3.32400342e+02
834             	3.32400447e+02
835             	3.32400530e+02
836             	3.32400608e+02
837             	3.32400689e+02
838             	3.32400745e+02
839             	3.32400774e+02
840             	3.32400835e+02
841             	3.32400950e+02
842             	3.32401023e+02
843             	3.32401136e+02
844             	3.32401273e+02
845             	3.32401386e+02
846             	3.32401462e+02
847             	3.32401560e+02
848             	3.32401720e+02
849             	3.32401835e+02
850             	3.32401933e+02
851             	3.32402028e+02
852             	3.32402173e+02
853             	3.32402200e+02
854             	3.32402229e+02
855             	3.32402313e+02
856             	3.32402397e+02
857             	3.32402487e+02
858             	3.32402584e+02
859             	3.32402639e+02
860             	3.32402570e+02
861             	3.32402619e+02
862             	3.32402719e+02
863             	3.32402783e+02
864             	3.32402827e+02
865             	3.32402840e+02
866             	3.32402813e+02
867             	3.32402743e+02
868             	3.32402703e+02
869             	3.32402694e+02
870             	3.32402728e+02
871             	3.32402712e+02
872             	3.32402703e+02
873             	3.32402702e+02
874             	3.32402703e+02
875             	3.32402757e+02
876             	3.32402880e+02
877             	3.32403016e+02
878             	3.32403170e+02
879             	3.32403349e+02
880             	3.32403503e+02
881             	3.32403544e+02
882             	3.32403683e+02
883             	3.32403867e+02
884             	3.32404011e+02
885             	3.32404114e+02
886             	3.32404220e+02
887             	3.32404252e+02
888             	3.32404246e+02
889             	3.32404233e+02
890             	3.32404251e+02
891             	3.32404250e+02
892             	3.32404244e+02
893             	3.32404244e+02
894             	3.32404195e+02
895             	3.32404146e+02
896             	3.32404131e+02
897             	3.32404162e+02
898             	3.32404183e+02
899             	3.32404211e+02
900             	3.32404255e+02
901             	3.32404277e+02
902             	3.32404270e+02
903             	3.32404285e+02
904             	3.32404341e+02
905             	3.32404379e+02
906             	3.32404409e+02
907             	3.32404438e+02
908             	3.32404433e+02
909             	3.32404390e+02
910             	3.32404366e+02
911             	3.32404379e+02
912             	3.32404377e+02
913             	3.32404372e+02
914             	3.32404376e+02
915             	3.32404358e+02
916             	3.32404313e+02
917             	3.32404299e+02
918             	3.32404337e+02
919             	3.32404373e+02
920             	3.32404419e+02
921             	3.32404486e+02
922             	3.32404542e+02
923             	3.32404580e+02
924             	3.32404655e+02
925             	3.32404788e+02
926             	3.32404918e+02
927             	3.32405058e+02
928             	3.32405212e+02
929             	3.32405344e+02
930             	3.32405445e+02
931             	3.32405570e+02
932             	3.32405737e+02
933             	3.32405887e+02