# Region        : cellZone component_3
# Cells         : 109
# Volume        : 2.06615686e-01
# Time          	volAverage(T)
1               	3.00634997e+02
2               	3.01260533e+02
3               	3.01835613e+02
4               	3.02376270e+02
5               	3.02896971e+02
6               	3.03402681e+02
7               	3.03895018e+02
8               	3.04376767e+02
9               	3.04849828e+02
10              	3.05315651e+02
11              	3.05772835e+02
12              	3.06226510e+02
13              	3.06679447e+02
14              	3.07132742e+02
15              	3.07574617e+02
16              	3.08001128e+02
17              	3.08419988e+02
18              	3.08814993e+02
19              	3.09187307e+02
20              	3.09541797e+02
21              	3.09885585e+02
22              	3.10214311e+02
23              	3.10534088e+02
24              	3.10846894e+02
25              	3.11148412e+02
26              	3.11440043e+02
27              	3.11724706e+02
28              	3.12006240e+02
29              	3.12285370e+02
30              	3.12565160e+02
31              	3.12847814e+02
32              	3.13134491e+02
33              	3.13425969e+02
34              	3.13721741e+02
35              	3.14017173e+02
36              	3.14315000e+02
37              	3.14611277e+02
38              	3.14904043e+02
39              	3.15190495e+02
40              	3.15469880e+02
41              	3.15744563e+02
42              	3.16015442e+02
43              	3.16277481e+02
44              	3.16524793e+02
45              	3.16753812e+02
46              	3.16971453e+02
47              	3.17168523e+02
48              	3.17358982e+02
49              	3.17544706e+02
50              	3.17724070e+02
51              	3.17901304e+02
52              	3.18077134e+02
53              	3.18257592e+02
54              	3.18442504e+02
55              	3.18632643e+02
56              	3.18825310e+02
57              	3.19008889e+02
58              	3.19182255e+02
59              	3.19345746e+02
60              	3.19498012e+02
61              	3.19645350e+02
62              	3.19780509e+02
63              	3.19914013e+02
64              	3.20037183e+02
65              	3.20161119e+02
66              	3.20279827e+02
67              	3.20403118e+02
68              	3.20530075e+02
69              	3.20667405e+02
70              	3.20812050e+02
71              	3.20949969e+02
72              	3.21086476e+02
73              	3.21215532e+02
74              	3.21342582e+02
75              	3.21466747e+02
76              	3.21584548e+02
77              	3.21701168e+02
78              	3.21816602e+02
79              	3.21922866e+02
80              	3.22033860e+02
81              	3.22140953e+02
82              	3.22257423e+02
83              	3.22374926e+02
84              	3.22491686e+02
85              	3.22606736e+02
86              	3.22716561e+02
87              	3.22821299e+02
88              	3.22924728e+02
89              	3.23027486e+02
90              	3.23128306e+02
91              	3.23225427e+02
92              	3.23314705e+02
93              	3.23397759e+02
94              	3.23476619e+02
95              	3.23553213e+02
96              	3.23626522e+02
97              	3.23698155e+02
98              	3.23768667e+02
99              	3.23839693e+02
100             	3.23911167e+02
101             	3.23986057e+02
102             	3.24060782e+02
103             	3.24138309e+02
104             	3.24216132e+02
105             	3.24295930e+02
106             	3.24372099e+02
107             	3.24445563e+02
108             	3.24519761e+02
109             	3.24592564e+02
110             	3.24662046e+02
111             	3.24727065e+02
112             	3.24785125e+02
113             	3.24837046e+02
114             	3.24888263e+02
115             	3.24933630e+02
116             	3.24979502e+02
117             	3.25024081e+02
118             	3.25074242e+02
119             	3.25128391e+02
120             	3.25187767e+02
121             	3.25249051e+02
122             	3.25309378e+02
123             	3.25366277e+02
124             	3.25421338e+02
125             	3.25473155e+02
126             	3.25522642e+02
127             	3.25572142e+02
128             	3.25622853e+02
129             	3.25675027e+02
130             	3.25728919e+02
131             	3.25780377e+02
132             	3.25831386e+02
133             	3.25879838e+02
134             	3.25922164e+02
135             	3.25964099e+02
136             	3.25998750e+02
137             	3.26033961e+02
138             	3.26068726e+02
139             	3.26103406e+02
140             	3.26138677e+02
141             	3.26173142e+02
142             	3.26204485e+02
143             	3.26238804e+02
144             	3.26271404e+02
145             	3.26306404e+02
146             	3.26344496e+02
147             	3.26384897e+02
148             	3.26426404e+02
149             	3.26470546e+02
150             	3.26517591e+02
151             	3.26565010e+02
152             	3.26611942e+02
153             	3.26657728e+02
154             	3.26701930e+02
155             	3.26744098e+02
156             	3.26783771e+02
157             	3.26820731e+02
158             	3.26854307e+02
159             	3.26884168e+02
160             	3.26911587e+02
161             	3.26937503e+02
162             	3.26962489e+02
163             	3.26986919e+02
164             	3.27011536e+02
165             	3.27037584e+02
166             	3.27065651e+02
167             	3.27096171e+02
168             	3.27129948e+02
169             	3.27162713e+02
170             	3.27193949e+02
171             	3.27224165e+02
172             	3.27251082e+02
173             	3.27278919e+02
174             	3.27305996e+02
175             	3.27331869e+02
176             	3.27355048e+02
177             	3.27375016e+02
178             	3.27392136e+02
179             	3.27407151e+02
180             	3.27420873e+02
181             	3.27434150e+02
182             	3.27447526e+02
183             	3.27461608e+02
184             	3.27477121e+02
185             	3.27494546e+02
186             	3.27514302e+02
187             	3.27535457e+02
188             	3.27557590e+02
189             	3.27580421e+02
190             	3.27603384e+02
191             	3.27626240e+02
192             	3.27649079e+02
193             	3.27670748e+02
194             	3.27691975e+02
195             	3.27712379e+02
196             	3.27734098e+02
197             	3.27756989e+02
198             	3.27781272e+02
199             	3.27807270e+02
200             	3.27834383e+02
201             	3.27863399e+02
202             	3.27894232e+02
203             	3.27924314e+02
204             	3.27947852e+02
205             	3.27959448e+02
206             	3.27971817e+02
207             	3.27985465e+02
208             	3.27998931e+02
209             	3.28009666e+02
210             	3.28018184e+02
211             	3.28023865e+02
212             	3.28031025e+02
213             	3.28038229e+02
214             	3.28047087e+02
215             	3.28057528e+02
216             	3.28068891e+02
217             	3.28080112e+02
218             	3.28090781e+02
219             	3.28100807e+02
220             	3.28110435e+02
221             	3.28119867e+02
222             	3.28129646e+02
223             	3.28139468e+02
224             	3.28149045e+02
225             	3.28158497e+02
226             	3.28168197e+02
227             	3.28178137e+02
228             	3.28190290e+02
229             	3.28204101e+02
230             	3.28218967e+02
231             	3.28234767e+02
232             	3.28252192e+02
233             	3.28270076e+02
234             	3.28288001e+02
235             	3.28306982e+02
236             	3.28327582e+02
237             	3.28349401e+02
238             	3.28372124e+02
239             	3.28392004e+02
240             	3.28407613e+02
241             	3.28419468e+02
242             	3.28428295e+02
243             	3.28435957e+02
244             	3.28444077e+02
245             	3.28452555e+02
246             	3.28460754e+02
247             	3.28469572e+02
248             	3.28478379e+02
249             	3.28486761e+02
250             	3.28494871e+02
251             	3.28501943e+02
252             	3.28509884e+02
253             	3.28518680e+02
254             	3.28527781e+02
255             	3.28537601e+02
256             	3.28548332e+02
257             	3.28559078e+02
258             	3.28569801e+02
259             	3.28580107e+02
260             	3.28589883e+02
261             	3.28599071e+02
262             	3.28607387e+02
263             	3.28614860e+02
264             	3.28621528e+02
265             	3.28627326e+02
266             	3.28632734e+02
267             	3.28637668e+02
268             	3.28641932e+02
269             	3.28645720e+02
270             	3.28649525e+02
271             	3.28652774e+02
272             	3.28656535e+02
273             	3.28660768e+02
274             	3.28664985e+02
275             	3.28668337e+02
276             	3.28669584e+02
277             	3.28669453e+02
278             	3.28669467e+02
279             	3.28669496e+02
280             	3.28667995e+02
281             	3.28664531e+02
282             	3.28660822e+02
283             	3.28658593e+02
284             	3.28658514e+02
285             	3.28660195e+02
286             	3.28663565e+02
287             	3.28668347e+02
288             	3.28674379e+02
289             	3.28681371e+02
290             	3.28689476e+02
291             	3.28698254e+02
292             	3.28707766e+02
293             	3.28717531e+02
294             	3.28727529e+02
295             	3.28737234e+02
296             	3.28746692e+02
297             	3.28755412e+02
298             	3.28763512e+02
299             	3.28770660e+02
300             	3.28777230e+02
301             	3.28783245e+02
302             	3.28789212e+02
303             	3.28795400e+02
304             	3.28802075e+02
305             	3.28809494e+02
306             	3.28817580e+02
307             	3.28826193e+02
308             	3.28835253e+02
309             	3.28844286e+02
310             	3.28853017e+02
311             	3.28860947e+02
312             	3.28867214e+02
313             	3.28871359e+02
314             	3.28873306e+02
315             	3.28873812e+02
316             	3.28873700e+02
317             	3.28873073e+02
318             	3.28869443e+02
319             	3.28864551e+02
320             	3.28860749e+02
321             	3.28858302e+02
322             	3.28857211e+02
323             	3.28857275e+02
324             	3.28858674e+02
325             	3.28860865e+02
326             	3.28863915e+02
327             	3.28868242e+02
328             	3.28873743e+02
329             	3.28880090e+02
330             	3.28886900e+02
331             	3.28894093e+02
332             	3.28901090e+02
333             	3.28907046e+02
334             	3.28912454e+02
335             	3.28917081e+02
336             	3.28921007e+02
337             	3.28924919e+02
338             	3.28928371e+02
339             	3.28931751e+02
340             	3.28935061e+02
341             	3.28938322e+02
342             	3.28941548e+02
343             	3.28945154e+02
344             	3.28948881e+02
345             	3.28952242e+02
346             	3.28955007e+02
347             	3.28956712e+02
348             	3.28957660e+02
349             	3.28957764e+02
350             	3.28957639e+02
351             	3.28956729e+02
352             	3.28953865e+02
353             	3.28949121e+02
354             	3.28944431e+02
355             	3.28939944e+02
356             	3.28937166e+02
357             	3.28934916e+02
358             	3.28934157e+02
359             	3.28934569e+02
360             	3.28936556e+02
361             	3.28940100e+02
362             	3.28944770e+02
363             	3.28950154e+02
364             	3.28954748e+02
365             	3.28959866e+02
366             	3.28965492e+02
367             	3.28971133e+02
368             	3.28976494e+02
369             	3.28981752e+02
370             	3.28986961e+02
371             	3.28991796e+02
372             	3.28995880e+02
373             	3.28999946e+02
374             	3.29004693e+02
375             	3.29009921e+02
376             	3.29015153e+02
377             	3.29021119e+02
378             	3.29027945e+02
379             	3.29035385e+02
380             	3.29043523e+02
381             	3.29051915e+02
382             	3.29059294e+02
383             	3.29064231e+02
384             	3.29066868e+02
385             	3.29067602e+02
386             	3.29066154e+02
387             	3.29061952e+02
388             	3.29056762e+02
389             	3.29051413e+02
390             	3.29046122e+02
391             	3.29040961e+02
392             	3.29036135e+02
393             	3.29031697e+02
394             	3.29027821e+02
395             	3.29024626e+02
396             	3.29022313e+02
397             	3.29021227e+02
398             	3.29020455e+02
399             	3.29020420e+02
400             	3.29021038e+02
401             	3.29022526e+02
402             	3.29022928e+02
403             	3.29023500e+02
404             	3.29024084e+02
405             	3.29024399e+02
406             	3.29024480e+02
407             	3.29024571e+02
408             	3.29025064e+02
409             	3.29026326e+02
410             	3.29028266e+02
411             	3.29030485e+02
412             	3.29033887e+02
413             	3.29037794e+02
414             	3.29042708e+02
415             	3.29047513e+02
416             	3.29052313e+02
417             	3.29056370e+02
418             	3.29057969e+02
419             	3.29055078e+02
420             	3.29050227e+02
421             	3.29045696e+02
422             	3.29041073e+02
423             	3.29036757e+02
424             	3.29033865e+02
425             	3.29031361e+02
426             	3.29029854e+02
427             	3.29029471e+02
428             	3.29029665e+02
429             	3.29029822e+02
430             	3.29030209e+02
431             	3.29030770e+02
432             	3.29031225e+02
433             	3.29031448e+02
434             	3.29031503e+02
435             	3.29031375e+02
436             	3.29030812e+02
437             	3.29029866e+02
438             	3.29028384e+02
439             	3.29026249e+02
440             	3.29022887e+02
441             	3.29018260e+02
442             	3.29012567e+02
443             	3.29006709e+02
444             	3.29001442e+02
445             	3.28996688e+02
446             	3.28993089e+02
447             	3.28990429e+02
448             	3.28989074e+02
449             	3.28989520e+02
450             	3.28992256e+02
451             	3.28995725e+02
452             	3.28999195e+02
453             	3.29000965e+02
454             	3.29000083e+02
455             	3.28993649e+02
456             	3.28986573e+02
457             	3.28979025e+02
458             	3.28971496e+02
459             	3.28964281e+02
460             	3.28957437e+02
461             	3.28950579e+02
462             	3.28943267e+02
463             	3.28935051e+02
464             	3.28926531e+02
465             	3.28917633e+02
466             	3.28908342e+02
467             	3.28899157e+02
468             	3.28889918e+02
469             	3.28880490e+02
470             	3.28871925e+02
471             	3.28863420e+02
472             	3.28854741e+02
473             	3.28846672e+02
474             	3.28839444e+02
475             	3.28833087e+02
476             	3.28827452e+02
477             	3.28823148e+02
478             	3.28820629e+02
479             	3.28820135e+02
480             	3.28820953e+02
481             	3.28824076e+02
482             	3.28829880e+02
483             	3.28837675e+02
484             	3.28846436e+02
485             	3.28856201e+02
486             	3.28862675e+02
487             	3.28864714e+02
488             	3.28863709e+02
489             	3.28859910e+02
490             	3.28854805e+02
491             	3.28847861e+02
492             	3.28839939e+02
493             	3.28831631e+02
494             	3.28823847e+02
495             	3.28817102e+02
496             	3.28811864e+02
497             	3.28808506e+02
498             	3.28806466e+02
499             	3.28804851e+02
500             	3.28804442e+02
501             	3.28805635e+02
502             	3.28808377e+02
503             	3.28811976e+02
504             	3.28815838e+02
505             	3.28818922e+02
506             	3.28822472e+02
507             	3.28826293e+02
508             	3.28829855e+02
509             	3.28832831e+02
510             	3.28834629e+02
511             	3.28836099e+02
512             	3.28837126e+02
513             	3.28837573e+02
514             	3.28837938e+02
515             	3.28838465e+02
516             	3.28839435e+02
517             	3.28840854e+02
518             	3.28842979e+02
519             	3.28845894e+02
520             	3.28849713e+02
521             	3.28854060e+02
522             	3.28858362e+02
523             	3.28861659e+02
524             	3.28862487e+02
525             	3.28861149e+02
526             	3.28859388e+02
527             	3.28857749e+02
528             	3.28854891e+02
529             	3.28852108e+02
530             	3.28849226e+02
531             	3.28847354e+02
532             	3.28846427e+02
533             	3.28846487e+02
534             	3.28847178e+02
535             	3.28847992e+02
536             	3.28848704e+02
537             	3.28849954e+02
538             	3.28851961e+02
539             	3.28854546e+02
540             	3.28857834e+02
541             	3.28861657e+02
542             	3.28865867e+02
543             	3.28870186e+02
544             	3.28874594e+02
545             	3.28878884e+02
546             	3.28883068e+02
547             	3.28886951e+02
548             	3.28890526e+02
549             	3.28894261e+02
550             	3.28898390e+02
551             	3.28903060e+02
552             	3.28908114e+02
553             	3.28913282e+02
554             	3.28916950e+02
555             	3.28920152e+02
556             	3.28922646e+02
557             	3.28924366e+02
558             	3.28925422e+02
559             	3.28925475e+02
560             	3.28924290e+02
561             	3.28922459e+02
562             	3.28920220e+02
563             	3.28916638e+02
564             	3.28910137e+02
565             	3.28904029e+02
566             	3.28899145e+02
567             	3.28895580e+02
568             	3.28893112e+02
569             	3.28891406e+02
570             	3.28890195e+02
571             	3.28889348e+02
572             	3.28889041e+02
573             	3.28889335e+02
574             	3.28890311e+02
575             	3.28891909e+02
576             	3.28894114e+02
577             	3.28896728e+02
578             	3.28899745e+02
579             	3.28901883e+02
580             	3.28904362e+02
581             	3.28906818e+02
582             	3.28909338e+02
583             	3.28911584e+02
584             	3.28913536e+02
585             	3.28915587e+02
586             	3.28917899e+02
587             	3.28920753e+02
588             	3.28923872e+02
589             	3.28927478e+02
590             	3.28931487e+02
591             	3.28935696e+02
592             	3.28939771e+02
593             	3.28942627e+02
594             	3.28942768e+02
595             	3.28940074e+02
596             	3.28934684e+02
597             	3.28927913e+02
598             	3.28921555e+02
599             	3.28913102e+02
600             	3.28902770e+02
601             	3.28892788e+02
602             	3.28883554e+02
603             	3.28876081e+02
604             	3.28869713e+02
605             	3.28864548e+02
606             	3.28860766e+02
607             	3.28858744e+02
608             	3.28858161e+02
609             	3.28858913e+02
610             	3.28860432e+02
611             	3.28863284e+02
612             	3.28867626e+02
613             	3.28872843e+02
614             	3.28878438e+02
615             	3.28884065e+02
616             	3.28888928e+02
617             	3.28893124e+02
618             	3.28896343e+02
619             	3.28898640e+02
620             	3.28900708e+02
621             	3.28901971e+02
622             	3.28902942e+02
623             	3.28904396e+02
624             	3.28906453e+02
625             	3.28909443e+02
626             	3.28913063e+02
627             	3.28917047e+02
628             	3.28920902e+02
629             	3.28923670e+02
630             	3.28925350e+02
631             	3.28925360e+02
632             	3.28925024e+02
633             	3.28924330e+02
634             	3.28923390e+02
635             	3.28922020e+02
636             	3.28920631e+02
637             	3.28919723e+02
638             	3.28919956e+02
639             	3.28920964e+02
640             	3.28922763e+02
641             	3.28925113e+02
642             	3.28927757e+02
643             	3.28930748e+02
644             	3.28933959e+02
645             	3.28937363e+02
646             	3.28940640e+02
647             	3.28943899e+02
648             	3.28947163e+02
649             	3.28950327e+02
650             	3.28953310e+02
651             	3.28956140e+02
652             	3.28958744e+02
653             	3.28961267e+02
654             	3.28963741e+02
655             	3.28966308e+02
656             	3.28969049e+02
657             	3.28971837e+02
658             	3.28975004e+02
659             	3.28979082e+02
660             	3.28983993e+02
661             	3.28989577e+02
662             	3.28995529e+02
663             	3.29001392e+02
664             	3.29006456e+02
665             	3.29009306e+02
666             	3.29009721e+02
667             	3.29007396e+02
668             	3.29003937e+02
669             	3.29000805e+02
670             	3.28995712e+02
671             	3.28988429e+02
672             	3.28981985e+02
673             	3.28975657e+02
674             	3.28970347e+02
675             	3.28966293e+02
676             	3.28963657e+02
677             	3.28962313e+02
678             	3.28962474e+02
679             	3.28964198e+02
680             	3.28967232e+02
681             	3.28971240e+02
682             	3.28976110e+02
683             	3.28980581e+02
684             	3.28984475e+02
685             	3.28988636e+02
686             	3.28992124e+02
687             	3.28995187e+02
688             	3.28998512e+02
689             	3.29001982e+02
690             	3.29005105e+02
691             	3.29007842e+02
692             	3.29009665e+02
693             	3.29010959e+02
694             	3.29012303e+02
695             	3.29014188e+02
696             	3.29016763e+02
697             	3.29020357e+02
698             	3.29024994e+02
699             	3.29029821e+02
700             	3.29033704e+02
701             	3.29034555e+02
702             	3.29032834e+02
703             	3.29029151e+02
704             	3.29023049e+02
705             	3.29015439e+02
706             	3.29007567e+02
707             	3.28999202e+02
708             	3.28991813e+02
709             	3.28985535e+02
710             	3.28981314e+02
711             	3.28979047e+02
712             	3.28978129e+02
713             	3.28978466e+02
714             	3.28979632e+02
715             	3.28981981e+02
716             	3.28984945e+02
717             	3.28988345e+02
718             	3.28992010e+02
719             	3.28996116e+02
720             	3.29000531e+02
721             	3.29005306e+02
722             	3.29009303e+02
723             	3.29013632e+02
724             	3.29018035e+02
725             	3.29022004e+02
726             	3.29025287e+02
727             	3.29027649e+02
728             	3.29029630e+02
729             	3.29031224e+02
730             	3.29033123e+02
731             	3.29035611e+02
732             	3.29039004e+02
733             	3.29043208e+02
734             	3.29047816e+02
735             	3.29052006e+02
736             	3.29055002e+02
737             	3.29056429e+02
738             	3.29056994e+02
739             	3.29057001e+02
740             	3.29057076e+02
741             	3.29056834e+02
742             	3.29054791e+02
743             	3.29052683e+02
744             	3.29049557e+02
745             	3.29047500e+02
746             	3.29047005e+02
747             	3.29047529e+02
748             	3.29048799e+02
749             	3.29049978e+02
750             	3.29050889e+02
751             	3.29051949e+02
752             	3.29054029e+02
753             	3.29056511e+02
754             	3.29059044e+02
755             	3.29061112e+02
756             	3.29062260e+02
757             	3.29063550e+02
758             	3.29064866e+02
759             	3.29065785e+02
760             	3.29066530e+02
761             	3.29066893e+02
762             	3.29066929e+02
763             	3.29067043e+02
764             	3.29068103e+02
765             	3.29070288e+02
766             	3.29073564e+02
767             	3.29078495e+02
768             	3.29084604e+02
769             	3.29091119e+02
770             	3.29096187e+02
771             	3.29099053e+02
772             	3.29098510e+02
773             	3.29095134e+02
774             	3.29090674e+02
775             	3.29083728e+02
776             	3.29074372e+02
777             	3.29063452e+02
778             	3.29052014e+02
779             	3.29040719e+02
780             	3.29030373e+02
781             	3.29021313e+02
782             	3.29013978e+02
783             	3.29008102e+02
784             	3.29003126e+02
785             	3.29000287e+02
786             	3.28998323e+02
787             	3.28998505e+02
788             	3.29000661e+02
789             	3.29004473e+02
790             	3.29009133e+02
791             	3.29014549e+02
792             	3.29019245e+02
793             	3.29024679e+02
794             	3.29029805e+02
795             	3.29034011e+02
796             	3.29036757e+02
797             	3.29038247e+02
798             	3.29040248e+02
799             	3.29042592e+02
800             	3.29045090e+02
801             	3.29047742e+02
802             	3.29050653e+02
803             	3.29054149e+02
804             	3.29058332e+02
805             	3.29061947e+02
806             	3.29065477e+02
807             	3.29066958e+02
808             	3.29066566e+02
809             	3.29064605e+02
810             	3.29061338e+02
811             	3.29056923e+02
812             	3.29052198e+02
813             	3.29047693e+02
814             	3.29044315e+02
815             	3.29042167e+02
816             	3.29041513e+02
817             	3.29041960e+02
818             	3.29043426e+02
819             	3.29045490e+02
820             	3.29047793e+02
821             	3.29050171e+02
822             	3.29052925e+02
823             	3.29055584e+02
824             	3.29058247e+02
825             	3.29060977e+02
826             	3.29063567e+02
827             	3.29066053e+02
828             	3.29068572e+02
829             	3.29070956e+02
830             	3.29073181e+02
831             	3.29075181e+02
832             	3.29077229e+02
833             	3.29079274e+02
834             	3.29081462e+02
835             	3.29083705e+02
836             	3.29086313e+02
837             	3.29089290e+02
838             	3.29092749e+02
839             	3.29096443e+02
840             	3.29099973e+02
841             	3.29102075e+02
842             	3.29101938e+02
843             	3.29098750e+02
844             	3.29093814e+02
845             	3.29088186e+02
846             	3.29081061e+02
847             	3.29070315e+02
848             	3.29059563e+02
849             	3.29049343e+02
850             	3.29040304e+02
851             	3.29032654e+02
852             	3.29026589e+02
853             	3.29021858e+02
854             	3.29018358e+02
855             	3.29016800e+02
856             	3.29017401e+02
857             	3.29020475e+02
858             	3.29025490e+02
859             	3.29032087e+02
860             	3.29039051e+02
861             	3.29045260e+02
862             	3.29049515e+02
863             	3.29053006e+02
864             	3.29055594e+02
865             	3.29056981e+02
866             	3.29057719e+02
867             	3.29058265e+02
868             	3.29059125e+02
869             	3.29059993e+02
870             	3.29059876e+02
871             	3.29060486e+02
872             	3.29061592e+02
873             	3.29063380e+02
874             	3.29065553e+02
875             	3.29067430e+02
876             	3.29068955e+02
877             	3.29067144e+02
878             	3.29062780e+02
879             	3.29057703e+02
880             	3.29051312e+02
881             	3.29044180e+02
882             	3.29035218e+02
883             	3.29024335e+02
884             	3.29014360e+02
885             	3.29005721e+02
886             	3.28998732e+02
887             	3.28993257e+02
888             	3.28989629e+02
889             	3.28987743e+02
890             	3.28987432e+02
891             	3.28988857e+02
892             	3.28991889e+02
893             	3.28996155e+02
894             	3.29001203e+02
895             	3.29006979e+02
896             	3.29012729e+02
897             	3.29018244e+02
898             	3.29023177e+02
899             	3.29027258e+02
900             	3.29029696e+02
901             	3.29031120e+02
902             	3.29031657e+02
903             	3.29032430e+02
904             	3.29032856e+02
905             	3.29033229e+02
906             	3.29034293e+02
907             	3.29036240e+02
908             	3.29039025e+02
909             	3.29042110e+02
910             	3.29045380e+02
911             	3.29047955e+02
912             	3.29049034e+02
913             	3.29047832e+02
914             	3.29044021e+02
915             	3.29037026e+02
916             	3.29028087e+02
917             	3.29019038e+02
918             	3.29010724e+02
919             	3.29004013e+02
920             	3.28998243e+02
921             	3.28993570e+02
922             	3.28990404e+02
923             	3.28988797e+02
924             	3.28988663e+02
925             	3.28990029e+02
926             	3.28993005e+02
927             	3.28997296e+02
928             	3.29002624e+02
929             	3.29008537e+02
930             	3.29014109e+02
931             	3.29018829e+02
932             	3.29022073e+02
933             	3.29023992e+02