# Region        : cellZone fluid
# Cells         : 9643
# Volume        : 1.80510650e+01
# Time          	volAverage(T)
1               	3.00000241e+02
2               	3.00000440e+02
3               	3.00001992e+02
4               	3.00004106e+02
5               	3.00006083e+02
6               	3.00008031e+02
7               	3.00010360e+02
8               	3.00013288e+02
9               	3.00016365e+02
10              	3.00020202e+02
11              	3.00024236e+02
12              	3.00028190e+02
13              	3.00033418e+02
14              	3.00037831e+02
15              	3.00044299e+02
16              	3.00050414e+02
17              	3.00057596e+02
18              	3.00064462e+02
19              	3.00070122e+02
20              	3.00075967e+02
21              	3.00082120e+02
22              	3.00089532e+02
23              	3.00096126e+02
24              	3.00101626e+02
25              	3.00109807e+02
26              	3.00115619e+02
27              	3.00121293e+02
28              	3.00129380e+02
29              	3.00137349e+02
30              	3.00147047e+02
31              	3.00155080e+02
32              	3.00164482e+02
33              	3.00172489e+02
34              	3.00181523e+02
35              	3.00194533e+02
36              	3.00201955e+02
37              	3.00211775e+02
38              	3.00218639e+02
39              	3.00226831e+02
40              	3.00234563e+02
41              	3.00242261e+02
42              	3.00252062e+02
43              	3.00261728e+02
44              	3.00274025e+02
45              	3.00285573e+02
46              	3.00294954e+02
47              	3.00304095e+02
48              	3.00313431e+02
49              	3.00324811e+02
50              	3.00333045e+02
51              	3.00345220e+02
52              	3.00355192e+02
53              	3.00363118e+02
54              	3.00371922e+02
55              	3.00381068e+02
56              	3.00387428e+02
57              	3.00400122e+02
58              	3.00411177e+02
59              	3.00421875e+02
60              	3.00430999e+02
61              	3.00438358e+02
62              	3.00446403e+02
63              	3.00453304e+02
64              	3.00460311e+02
65              	3.00469821e+02
66              	3.00476440e+02
67              	3.00486439e+02
68              	3.00495602e+02
69              	3.00505053e+02
70              	3.00513817e+02
71              	3.00522624e+02
72              	3.00529775e+02
73              	3.00537936e+02
74              	3.00548377e+02
75              	3.00556239e+02
76              	3.00563900e+02
77              	3.00572840e+02
78              	3.00582951e+02
79              	3.00593089e+02
80              	3.00600529e+02
81              	3.00608053e+02
82              	3.00616699e+02
83              	3.00624133e+02
84              	3.00630514e+02
85              	3.00636200e+02
86              	3.00643378e+02
87              	3.00652483e+02
88              	3.00661824e+02
89              	3.00671480e+02
90              	3.00679191e+02
91              	3.00684933e+02
92              	3.00693008e+02
93              	3.00699043e+02
94              	3.00706447e+02
95              	3.00714744e+02
96              	3.00720794e+02
97              	3.00726832e+02
98              	3.00735848e+02
99              	3.00744265e+02
100             	3.00750910e+02
101             	3.00757781e+02
102             	3.00763697e+02
103             	3.00770306e+02
104             	3.00776289e+02
105             	3.00783408e+02
106             	3.00787729e+02
107             	3.00793339e+02
108             	3.00798841e+02
109             	3.00805042e+02
110             	3.00811157e+02
111             	3.00817776e+02
112             	3.00824422e+02
113             	3.00831434e+02
114             	3.00838358e+02
115             	3.00844931e+02
116             	3.00850345e+02
117             	3.00856342e+02
118             	3.00861022e+02
119             	3.00867102e+02
120             	3.00872166e+02
121             	3.00876701e+02
122             	3.00884163e+02
123             	3.00886997e+02
124             	3.00890392e+02
125             	3.00894185e+02
126             	3.00898325e+02
127             	3.00902493e+02
128             	3.00906599e+02
129             	3.00910733e+02
130             	3.00915174e+02
131             	3.00919634e+02
132             	3.00924406e+02
133             	3.00929094e+02
134             	3.00933168e+02
135             	3.00937495e+02
136             	3.00941113e+02
137             	3.00945205e+02
138             	3.00948728e+02
139             	3.00951879e+02
140             	3.00954813e+02
141             	3.00957628e+02
142             	3.00960395e+02
143             	3.00963254e+02
144             	3.00966264e+02
145             	3.00968735e+02
146             	3.00971289e+02
147             	3.00974349e+02
148             	3.00976565e+02
149             	3.00979085e+02
150             	3.00981565e+02
151             	3.00984064e+02
152             	3.00986074e+02
153             	3.00988483e+02
154             	3.00990257e+02
155             	3.00992165e+02
156             	3.00994154e+02
157             	3.00995760e+02
158             	3.00997048e+02
159             	3.00998626e+02
160             	3.00999833e+02
161             	3.01001164e+02
162             	3.01002082e+02
163             	3.01003218e+02
164             	3.01004530e+02
165             	3.01005797e+02
166             	3.01006978e+02
167             	3.01008121e+02
168             	3.01009001e+02
169             	3.01009902e+02
170             	3.01010535e+02
171             	3.01011559e+02
172             	3.01012173e+02
173             	3.01012656e+02
174             	3.01013367e+02
175             	3.01013981e+02
176             	3.01014445e+02
177             	3.01014969e+02
178             	3.01015511e+02
179             	3.01016078e+02
180             	3.01016470e+02
181             	3.01016768e+02
182             	3.01017212e+02
183             	3.01017670e+02
184             	3.01018095e+02
185             	3.01018501e+02
186             	3.01018888e+02
187             	3.01018862e+02
188             	3.01019504e+02
189             	3.01019738e+02
190             	3.01019827e+02
191             	3.01019807e+02
192             	3.01019845e+02
193             	3.01019691e+02
194             	3.01019620e+02
195             	3.01019510e+02
196             	3.01019618e+02
197             	3.01019474e+02
198             	3.01019379e+02
199             	3.01019323e+02
200             	3.01019339e+02
201             	3.01019398e+02
202             	3.01019461e+02
203             	3.01019504e+02
204             	3.01019595e+02
205             	3.01019519e+02
206             	3.01019581e+02
207             	3.01019686e+02
208             	3.01019655e+02
209             	3.01019569e+02
210             	3.01019501e+02
211             	3.01019414e+02
212             	3.01019306e+02
213             	3.01019218e+02
214             	3.01019157e+02
215             	3.01019175e+02
216             	3.01018971e+02
217             	3.01018858e+02
218             	3.01018783e+02
219             	3.01018781e+02
220             	3.01018779e+02
221             	3.01018785e+02
222             	3.01018753e+02
223             	3.01018766e+02
224             	3.01018705e+02
225             	3.01018651e+02
226             	3.01018602e+02
227             	3.01018536e+02
228             	3.01018472e+02
229             	3.01018365e+02
230             	3.01018235e+02
231             	3.01018078e+02
232             	3.01017922e+02
233             	3.01017799e+02
234             	3.01017624e+02
235             	3.01017435e+02
236             	3.01017260e+02
237             	3.01017211e+02
238             	3.01016955e+02
239             	3.01016782e+02
240             	3.01016625e+02
241             	3.01016488e+02
242             	3.01016346e+02
243             	3.01016250e+02
244             	3.01016187e+02
245             	3.01016191e+02
246             	3.01016043e+02
247             	3.01015882e+02
248             	3.01015776e+02
249             	3.01015621e+02
250             	3.01015426e+02
251             	3.01015246e+02
252             	3.01015053e+02
253             	3.01014858e+02
254             	3.01014670e+02
255             	3.01014454e+02
256             	3.01014262e+02
257             	3.01014065e+02
258             	3.01013893e+02
259             	3.01013730e+02
260             	3.01013562e+02
261             	3.01013378e+02
262             	3.01013183e+02
263             	3.01013021e+02
264             	3.01012833e+02
265             	3.01012617e+02
266             	3.01012430e+02
267             	3.01012218e+02
268             	3.01012040e+02
269             	3.01011850e+02
270             	3.01011661e+02
271             	3.01011487e+02
272             	3.01011288e+02
273             	3.01011096e+02
274             	3.01010888e+02
275             	3.01010646e+02
276             	3.01010407e+02
277             	3.01010174e+02
278             	3.01009939e+02
279             	3.01009719e+02
280             	3.01009538e+02
281             	3.01009333e+02
282             	3.01009153e+02
283             	3.01008978e+02
284             	3.01008808e+02
285             	3.01008633e+02
286             	3.01008439e+02
287             	3.01008243e+02
288             	3.01008024e+02
289             	3.01007827e+02
290             	3.01007612e+02
291             	3.01007415e+02
292             	3.01007193e+02
293             	3.01006977e+02
294             	3.01006754e+02
295             	3.01006534e+02
296             	3.01006320e+02
297             	3.01006112e+02
298             	3.01005907e+02
299             	3.01005701e+02
300             	3.01005488e+02
301             	3.01005264e+02
302             	3.01005045e+02
303             	3.01004816e+02
304             	3.01004591e+02
305             	3.01004368e+02
306             	3.01004145e+02
307             	3.01003929e+02
308             	3.01003709e+02
309             	3.01003509e+02
310             	3.01003308e+02
311             	3.01003095e+02
312             	3.01002895e+02
313             	3.01002684e+02
314             	3.01002465e+02
315             	3.01002252e+02
316             	3.01002042e+02
317             	3.01001833e+02
318             	3.01001628e+02
319             	3.01001424e+02
320             	3.01001220e+02
321             	3.01001013e+02
322             	3.01000827e+02
323             	3.01000630e+02
324             	3.01000429e+02
325             	3.01000225e+02
326             	3.01000026e+02
327             	3.00999822e+02
328             	3.00999612e+02
329             	3.00999407e+02
330             	3.00999202e+02
331             	3.00999003e+02
332             	3.00998803e+02
333             	3.00998608e+02
334             	3.00998414e+02
335             	3.00998224e+02
336             	3.00998039e+02
337             	3.00997857e+02
338             	3.00997674e+02
339             	3.00997487e+02
340             	3.00997299e+02
341             	3.00997110e+02
342             	3.00996921e+02
343             	3.00996743e+02
344             	3.00996560e+02
345             	3.00996377e+02
346             	3.00996197e+02
347             	3.00996013e+02
348             	3.00995833e+02
349             	3.00995661e+02
350             	3.00995489e+02
351             	3.00995316e+02
352             	3.00995144e+02
353             	3.00994966e+02
354             	3.00994783e+02
355             	3.00994587e+02
356             	3.00994416e+02
357             	3.00994236e+02
358             	3.00994058e+02
359             	3.00993890e+02
360             	3.00993720e+02
361             	3.00993554e+02
362             	3.00993392e+02
363             	3.00993233e+02
364             	3.00993081e+02
365             	3.00992914e+02
366             	3.00992768e+02
367             	3.00992614e+02
368             	3.00992459e+02
369             	3.00992298e+02
370             	3.00992151e+02
371             	3.00991998e+02
372             	3.00991844e+02
373             	3.00991689e+02
374             	3.00991543e+02
375             	3.00991385e+02
376             	3.00991249e+02
377             	3.00991093e+02
378             	3.00990948e+02
379             	3.00990806e+02
380             	3.00990670e+02
381             	3.00990528e+02
382             	3.00990395e+02
383             	3.00990254e+02
384             	3.00990119e+02
385             	3.00989976e+02
386             	3.00989841e+02
387             	3.00989703e+02
388             	3.00989564e+02
389             	3.00989429e+02
390             	3.00989294e+02
391             	3.00989164e+02
392             	3.00989034e+02
393             	3.00988905e+02
394             	3.00988778e+02
395             	3.00988652e+02
396             	3.00988528e+02
397             	3.00988402e+02
398             	3.00988277e+02
399             	3.00988153e+02
400             	3.00988032e+02
401             	3.00987910e+02
402             	3.00987787e+02
403             	3.00987668e+02
404             	3.00987548e+02
405             	3.00987431e+02
406             	3.00987316e+02
407             	3.00987203e+02
408             	3.00987090e+02
409             	3.00986979e+02
410             	3.00986870e+02
411             	3.00986763e+02
412             	3.00986659e+02
413             	3.00986554e+02
414             	3.00986452e+02
415             	3.00986348e+02
416             	3.00986249e+02
417             	3.00986150e+02
418             	3.00986051e+02
419             	3.00985954e+02
420             	3.00985859e+02
421             	3.00985764e+02
422             	3.00985670e+02
423             	3.00985573e+02
424             	3.00985475e+02
425             	3.00985380e+02
426             	3.00985284e+02
427             	3.00985189e+02
428             	3.00985098e+02
429             	3.00985006e+02
430             	3.00984913e+02
431             	3.00984825e+02
432             	3.00984737e+02
433             	3.00984651e+02
434             	3.00984566e+02
435             	3.00984481e+02
436             	3.00984397e+02
437             	3.00984314e+02
438             	3.00984232e+02
439             	3.00984151e+02
440             	3.00984070e+02
441             	3.00983990e+02
442             	3.00983910e+02
443             	3.00983832e+02
444             	3.00983754e+02
445             	3.00983677e+02
446             	3.00983602e+02
447             	3.00983527e+02
448             	3.00983452e+02
449             	3.00983379e+02
450             	3.00983307e+02
451             	3.00983235e+02
452             	3.00983165e+02
453             	3.00983095e+02
454             	3.00983026e+02
455             	3.00982959e+02
456             	3.00982891e+02
457             	3.00982824e+02
458             	3.00982758e+02
459             	3.00982693e+02
460             	3.00982629e+02
461             	3.00982566e+02
462             	3.00982504e+02
463             	3.00982446e+02
464             	3.00982386e+02
465             	3.00982329e+02
466             	3.00982272e+02
467             	3.00982217e+02
468             	3.00982161e+02
469             	3.00982107e+02
470             	3.00982054e+02
471             	3.00982001e+02
472             	3.00981949e+02
473             	3.00981898e+02
474             	3.00981848e+02
475             	3.00981794e+02
476             	3.00981750e+02
477             	3.00981703e+02
478             	3.00981655e+02
479             	3.00981607e+02
480             	3.00981559e+02
481             	3.00981512e+02
482             	3.00981462e+02
483             	3.00981422e+02
484             	3.00981370e+02
485             	3.00981325e+02
486             	3.00981281e+02
487             	3.00981239e+02
488             	3.00981198e+02
489             	3.00981158e+02
490             	3.00981118e+02
491             	3.00981077e+02
492             	3.00981039e+02
493             	3.00981003e+02
494             	3.00980967e+02
495             	3.00980930e+02
496             	3.00980893e+02
497             	3.00980856e+02
498             	3.00980820e+02
499             	3.00980783e+02
500             	3.00980745e+02
501             	3.00980707e+02
502             	3.00980669e+02
503             	3.00980635e+02
504             	3.00980602e+02
505             	3.00980569e+02
506             	3.00980537e+02
507             	3.00980507e+02
508             	3.00980478e+02
509             	3.00980449e+02
510             	3.00980420e+02
511             	3.00980389e+02
512             	3.00980360e+02
513             	3.00980331e+02
514             	3.00980302e+02
515             	3.00980273e+02
516             	3.00980244e+02
517             	3.00980217e+02
518             	3.00980188e+02
519             	3.00980160e+02
520             	3.00980137e+02
521             	3.00980111e+02
522             	3.00980086e+02
523             	3.00980063e+02
524             	3.00980040e+02
525             	3.00980018e+02
526             	3.00979996e+02
527             	3.00979975e+02
528             	3.00979954e+02
529             	3.00979934e+02
530             	3.00979915e+02
531             	3.00979897e+02
532             	3.00979880e+02
533             	3.00979864e+02
534             	3.00979847e+02
535             	3.00979831e+02
536             	3.00979815e+02
537             	3.00979800e+02
538             	3.00979785e+02
539             	3.00979770e+02
540             	3.00979754e+02
541             	3.00979739e+02
542             	3.00979724e+02
543             	3.00979709e+02
544             	3.00979695e+02
545             	3.00979679e+02
546             	3.00979669e+02
547             	3.00979656e+02
548             	3.00979644e+02
549             	3.00979632e+02
550             	3.00979620e+02
551             	3.00979608e+02
552             	3.00979597e+02
553             	3.00979585e+02
554             	3.00979573e+02
555             	3.00979566e+02
556             	3.00979549e+02
557             	3.00979536e+02
558             	3.00979524e+02
559             	3.00979514e+02
560             	3.00979504e+02
561             	3.00979496e+02
562             	3.00979488e+02
563             	3.00979481e+02
564             	3.00979473e+02
565             	3.00979467e+02
566             	3.00979460e+02
567             	3.00979452e+02
568             	3.00979445e+02
569             	3.00979436e+02
570             	3.00979429e+02
571             	3.00979420e+02
572             	3.00979413e+02
573             	3.00979404e+02
574             	3.00979397e+02
575             	3.00979389e+02
576             	3.00979380e+02
577             	3.00979372e+02
578             	3.00979365e+02
579             	3.00979358e+02
580             	3.00979350e+02
581             	3.00979344e+02
582             	3.00979339e+02
583             	3.00979334e+02
584             	3.00979330e+02
585             	3.00979327e+02
586             	3.00979323e+02
587             	3.00979321e+02
588             	3.00979318e+02
589             	3.00979315e+02
590             	3.00979312e+02
591             	3.00979310e+02
592             	3.00979307e+02
593             	3.00979305e+02
594             	3.00979303e+02
595             	3.00979300e+02
596             	3.00979298e+02
597             	3.00979297e+02
598             	3.00979295e+02
599             	3.00979293e+02
600             	3.00979291e+02
601             	3.00979290e+02
602             	3.00979287e+02
603             	3.00979285e+02
604             	3.00979282e+02
605             	3.00979281e+02
606             	3.00979281e+02
607             	3.00979280e+02
608             	3.00979280e+02
609             	3.00979280e+02
610             	3.00979281e+02
611             	3.00979281e+02
612             	3.00979282e+02
613             	3.00979282e+02
614             	3.00979283e+02
615             	3.00979283e+02
616             	3.00979286e+02
617             	3.00979287e+02
618             	3.00979290e+02
619             	3.00979293e+02
620             	3.00979297e+02
621             	3.00979301e+02
622             	3.00979306e+02
623             	3.00979310e+02
624             	3.00979315e+02
625             	3.00979319e+02
626             	3.00979324e+02
627             	3.00979328e+02
628             	3.00979333e+02
629             	3.00979336e+02
630             	3.00979341e+02
631             	3.00979345e+02
632             	3.00979348e+02
633             	3.00979352e+02
634             	3.00979355e+02
635             	3.00979358e+02
636             	3.00979360e+02
637             	3.00979363e+02
638             	3.00979365e+02
639             	3.00979367e+02
640             	3.00979369e+02
641             	3.00979371e+02
642             	3.00979372e+02
643             	3.00979374e+02
644             	3.00979375e+02
645             	3.00979377e+02
646             	3.00979379e+02
647             	3.00979380e+02
648             	3.00979382e+02
649             	3.00979383e+02
650             	3.00979384e+02
651             	3.00979385e+02
652             	3.00979386e+02
653             	3.00979386e+02
654             	3.00979387e+02
655             	3.00979388e+02
656             	3.00979388e+02
657             	3.00979390e+02
658             	3.00979391e+02
659             	3.00979393e+02
660             	3.00979395e+02
661             	3.00979398e+02
662             	3.00979401e+02
663             	3.00979405e+02
664             	3.00979409e+02
665             	3.00979413e+02
666             	3.00979417e+02
667             	3.00979422e+02
668             	3.00979427e+02
669             	3.00979433e+02
670             	3.00979438e+02
671             	3.00979444e+02
672             	3.00979450e+02
673             	3.00979456e+02
674             	3.00979462e+02
675             	3.00979468e+02
676             	3.00979474e+02
677             	3.00979480e+02
678             	3.00979486e+02
679             	3.00979492e+02
680             	3.00979498e+02
681             	3.00979504e+02
682             	3.00979510e+02
683             	3.00979515e+02
684             	3.00979521e+02
685             	3.00979527e+02
686             	3.00979533e+02
687             	3.00979539e+02
688             	3.00979545e+02
689             	3.00979550e+02
690             	3.00979556e+02
691             	3.00979562e+02
692             	3.00979567e+02
693             	3.00979573e+02
694             	3.00979578e+02
695             	3.00979584e+02
696             	3.00979590e+02
697             	3.00979595e+02
698             	3.00979601e+02
699             	3.00979607e+02
700             	3.00979612e+02
701             	3.00979618e+02
702             	3.00979624e+02
703             	3.00979630e+02
704             	3.00979636e+02
705             	3.00979641e+02
706             	3.00979647e+02
707             	3.00979652e+02
708             	3.00979657e+02
709             	3.00979662e+02
710             	3.00979668e+02
711             	3.00979672e+02
712             	3.00979677e+02
713             	3.00979682e+02
714             	3.00979686e+02
715             	3.00979691e+02
716             	3.00979696e+02
717             	3.00979701e+02
718             	3.00979706e+02
719             	3.00979711e+02
720             	3.00979716e+02
721             	3.00979721e+02
722             	3.00979726e+02
723             	3.00979732e+02
724             	3.00979737e+02
725             	3.00979742e+02
726             	3.00979748e+02
727             	3.00979753e+02
728             	3.00979759e+02
729             	3.00979764e+02
730             	3.00979770e+02
731             	3.00979775e+02
732             	3.00979781e+02
733             	3.00979786e+02
734             	3.00979792e+02
735             	3.00979797e+02
736             	3.00979803e+02
737             	3.00979809e+02
738             	3.00979814e+02
739             	3.00979820e+02
740             	3.00979826e+02
741             	3.00979832e+02
742             	3.00979837e+02
743             	3.00979843e+02
744             	3.00979849e+02
745             	3.00979855e+02
746             	3.00979860e+02
747             	3.00979866e+02
748             	3.00979872e+02
749             	3.00979878e+02
750             	3.00979883e+02
751             	3.00979889e+02
752             	3.00979894e+02
753             	3.00979900e+02
754             	3.00979905e+02
755             	3.00979911e+02
756             	3.00979916e+02
757             	3.00979922e+02
758             	3.00979927e+02
759             	3.00979933e+02
760             	3.00979938e+02
761             	3.00979944e+02
762             	3.00979950e+02
763             	3.00979955e+02
764             	3.00979961e+02
765             	3.00979967e+02
766             	3.00979972e+02
767             	3.00979978e+02
768             	3.00979984e+02
769             	3.00979990e+02
770             	3.00979996e+02
771             	3.00980002e+02
772             	3.00980008e+02
773             	3.00980014e+02
774             	3.00980020e+02
775             	3.00980026e+02
776             	3.00980032e+02
777             	3.00980038e+02
778             	3.00980044e+02
779             	3.00980051e+02
780             	3.00980057e+02
781             	3.00980063e+02
782             	3.00980069e+02
783             	3.00980075e+02
784             	3.00980081e+02
785             	3.00980087e+02
786             	3.00980093e+02
787             	3.00980100e+02
788             	3.00980106e+02
789             	3.00980112e+02
790             	3.00980118e+02
791             	3.00980124e+02
792             	3.00980130e+02
793             	3.00980136e+02
794             	3.00980143e+02
795             	3.00980148e+02
796             	3.00980154e+02
797             	3.00980160e+02
798             	3.00980165e+02
799             	3.00980171e+02
800             	3.00980177e+02
801             	3.00980182e+02
802             	3.00980188e+02
803             	3.00980193e+02
804             	3.00980200e+02
805             	3.00980205e+02
806             	3.00980212e+02
807             	3.00980217e+02
808             	3.00980224e+02
809             	3.00980231e+02
810             	3.00980237e+02
811             	3.00980243e+02
812             	3.00980250e+02
813             	3.00980256e+02
814             	3.00980262e+02
815             	3.00980268e+02
816             	3.00980274e+02
817             	3.00980280e+02
818             	3.00980285e+02
819             	3.00980291e+02
820             	3.00980297e+02
821             	3.00980303e+02
822             	3.00980309e+02
823             	3.00980315e+02
824             	3.00980321e+02
825             	3.00980326e+02
826             	3.00980331e+02
827             	3.00980336e+02
828             	3.00980341e+02
829             	3.00980346e+02
830             	3.00980351e+02
831             	3.00980356e+02
832             	3.00980360e+02
833             	3.00980365e+02
834             	3.00980370e+02
835             	3.00980374e+02
836             	3.00980379e+02
837             	3.00980384e+02
838             	3.00980389e+02
839             	3.00980393e+02
840             	3.00980398e+02
841             	3.00980403e+02
842             	3.00980409e+02
843             	3.00980414e+02
844             	3.00980420e+02
845             	3.00980425e+02
846             	3.00980431e+02
847             	3.00980437e+02
848             	3.00980442e+02
849             	3.00980448e+02
850             	3.00980454e+02
851             	3.00980460e+02
852             	3.00980466e+02
853             	3.00980471e+02
854             	3.00980477e+02
855             	3.00980483e+02
856             	3.00980489e+02
857             	3.00980495e+02
858             	3.00980500e+02
859             	3.00980505e+02
860             	3.00980511e+02
861             	3.00980516e+02
862             	3.00980521e+02
863             	3.00980526e+02
864             	3.00980531e+02
865             	3.00980536e+02
866             	3.00980541e+02
867             	3.00980546e+02
868             	3.00980551e+02
869             	3.00980557e+02
870             	3.00980563e+02
871             	3.00980569e+02
872             	3.00980574e+02
873             	3.00980581e+02
874             	3.00980586e+02
875             	3.00980593e+02
876             	3.00980599e+02
877             	3.00980605e+02
878             	3.00980611e+02
879             	3.00980617e+02
880             	3.00980622e+02
881             	3.00980628e+02
882             	3.00980634e+02
883             	3.00980639e+02
884             	3.00980644e+02
885             	3.00980649e+02
886             	3.00980653e+02
887             	3.00980657e+02
888             	3.00980661e+02
889             	3.00980665e+02
890             	3.00980669e+02
891             	3.00980674e+02
892             	3.00980677e+02
893             	3.00980682e+02
894             	3.00980686e+02
895             	3.00980690e+02
896             	3.00980695e+02
897             	3.00980699e+02
898             	3.00980704e+02
899             	3.00980709e+02
900             	3.00980714e+02
901             	3.00980718e+02
902             	3.00980723e+02
903             	3.00980727e+02
904             	3.00980732e+02
905             	3.00980736e+02
906             	3.00980741e+02
907             	3.00980745e+02
908             	3.00980750e+02
909             	3.00980754e+02
910             	3.00980759e+02
911             	3.00980763e+02
912             	3.00980768e+02
913             	3.00980774e+02
914             	3.00980778e+02
915             	3.00980783e+02
916             	3.00980788e+02
917             	3.00980793e+02
918             	3.00980798e+02
919             	3.00980803e+02
920             	3.00980808e+02
921             	3.00980813e+02
922             	3.00980819e+02
923             	3.00980824e+02
924             	3.00980829e+02
925             	3.00980835e+02
926             	3.00980840e+02
927             	3.00980846e+02
928             	3.00980851e+02
929             	3.00980856e+02
930             	3.00980861e+02
931             	3.00980867e+02
932             	3.00980872e+02
933             	3.00980877e+02