# Region        : cellZone component_4
# Cells         : 48
# Volume        : 2.21983854e-02
# Time          	volAverage(T)
1               	3.02536651e+02
2               	3.05048244e+02
3               	3.07386406e+02
4               	3.09626014e+02
5               	3.11808485e+02
6               	3.13950609e+02
7               	3.16019774e+02
8               	3.18019383e+02
9               	3.19955885e+02
10              	3.21833898e+02
11              	3.23656829e+02
12              	3.25426420e+02
13              	3.27143878e+02
14              	3.28811009e+02
15              	3.30430978e+02
16              	3.32007575e+02
17              	3.33542952e+02
18              	3.35039432e+02
19              	3.36500340e+02
20              	3.37927787e+02
21              	3.39323543e+02
22              	3.40692245e+02
23              	3.42030889e+02
24              	3.43338403e+02
25              	3.44613154e+02
26              	3.45849743e+02
27              	3.47045845e+02
28              	3.48207596e+02
29              	3.49334970e+02
30              	3.50424625e+02
31              	3.51476801e+02
32              	3.52493797e+02
33              	3.53480884e+02
34              	3.54438805e+02
35              	3.55371138e+02
36              	3.56286056e+02
37              	3.57182726e+02
38              	3.58062323e+02
39              	3.58927699e+02
40              	3.59782821e+02
41              	3.60629972e+02
42              	3.61462082e+02
43              	3.62288876e+02
44              	3.63090097e+02
45              	3.63865558e+02
46              	3.64619818e+02
47              	3.65349285e+02
48              	3.66046784e+02
49              	3.66718309e+02
50              	3.67368012e+02
51              	3.67996245e+02
52              	3.68607387e+02
53              	3.69209028e+02
54              	3.69804085e+02
55              	3.70393674e+02
56              	3.70979092e+02
57              	3.71561284e+02
58              	3.72141008e+02
59              	3.72717094e+02
60              	3.73278196e+02
61              	3.73822887e+02
62              	3.74356580e+02
63              	3.74872861e+02
64              	3.75369319e+02
65              	3.75846699e+02
66              	3.76307021e+02
67              	3.76753271e+02
68              	3.77188508e+02
69              	3.77621717e+02
70              	3.78056874e+02
71              	3.78497523e+02
72              	3.78949780e+02
73              	3.79411621e+02
74              	3.79882634e+02
75              	3.80339462e+02
76              	3.80766604e+02
77              	3.81182896e+02
78              	3.81593015e+02
79              	3.81979287e+02
80              	3.82345839e+02
81              	3.82687684e+02
82              	3.83014977e+02
83              	3.83337619e+02
84              	3.83665958e+02
85              	3.84013311e+02
86              	3.84364453e+02
87              	3.84720586e+02
88              	3.85079033e+02
89              	3.85429615e+02
90              	3.85762623e+02
91              	3.86095189e+02
92              	3.86408739e+02
93              	3.86695228e+02
94              	3.86966614e+02
95              	3.87216351e+02
96              	3.87455022e+02
97              	3.87698016e+02
98              	3.87960985e+02
99              	3.88226193e+02
100             	3.88493295e+02
101             	3.88762917e+02
102             	3.89040540e+02
103             	3.89310164e+02
104             	3.89571259e+02
105             	3.89836133e+02
106             	3.90084266e+02
107             	3.90313801e+02
108             	3.90528363e+02
109             	3.90728908e+02
110             	3.90917310e+02
111             	3.91097981e+02
112             	3.91288713e+02
113             	3.91480495e+02
114             	3.91688145e+02
115             	3.91914490e+02
116             	3.92125000e+02
117             	3.92330529e+02
118             	3.92521213e+02
119             	3.92705578e+02
120             	3.92904198e+02
121             	3.93092294e+02
122             	3.93264566e+02
123             	3.93422811e+02
124             	3.93570231e+02
125             	3.93703642e+02
126             	3.93827765e+02
127             	3.93946805e+02
128             	3.94068189e+02
129             	3.94194591e+02
130             	3.94318637e+02
131             	3.94449344e+02
132             	3.94593051e+02
133             	3.94747259e+02
134             	3.94921804e+02
135             	3.95107963e+02
136             	3.95291603e+02
137             	3.95467456e+02
138             	3.95626419e+02
139             	3.95771283e+02
140             	3.95905584e+02
141             	3.96019420e+02
142             	3.96115466e+02
143             	3.96200934e+02
144             	3.96276374e+02
145             	3.96348047e+02
146             	3.96426394e+02
147             	3.96522641e+02
148             	3.96641303e+02
149             	3.96769528e+02
150             	3.96910325e+02
151             	3.97055696e+02
152             	3.97197066e+02
153             	3.97319432e+02
154             	3.97446316e+02
155             	3.97569954e+02
156             	3.97673196e+02
157             	3.97765708e+02
158             	3.97846778e+02
159             	3.97920680e+02
160             	3.98004243e+02
161             	3.98111843e+02
162             	3.98234149e+02
163             	3.98366108e+02
164             	3.98503872e+02
165             	3.98633866e+02
166             	3.98753899e+02
167             	3.98899876e+02
168             	3.99028602e+02
169             	3.99132551e+02
170             	3.99220608e+02
171             	3.99282176e+02
172             	3.99415598e+02
173             	3.99585722e+02
174             	3.99738970e+02
175             	3.99886377e+02
176             	4.00049851e+02
177             	4.00220524e+02
178             	4.00403987e+02
179             	4.00589021e+02
180             	4.00780220e+02
181             	4.00962577e+02
182             	4.01131957e+02
183             	4.01305965e+02
184             	4.01471858e+02
185             	4.01619911e+02
186             	4.01750709e+02
187             	4.01866344e+02
188             	4.01969274e+02
189             	4.02067835e+02
190             	4.02165732e+02
191             	4.02264003e+02
192             	4.02366804e+02
193             	4.02480258e+02
194             	4.02605293e+02
195             	4.02754272e+02
196             	4.02897467e+02
197             	4.03051539e+02
198             	4.03224087e+02
199             	4.03372046e+02
200             	4.03505601e+02
201             	4.03616144e+02
202             	4.03708858e+02
203             	4.03783311e+02
204             	4.03844139e+02
205             	4.03896076e+02
206             	4.03954578e+02
207             	4.04025856e+02
208             	4.04116914e+02
209             	4.04214652e+02
210             	4.04319689e+02
211             	4.04427757e+02
212             	4.04541288e+02
213             	4.04655077e+02
214             	4.04766601e+02
215             	4.04876940e+02
216             	4.04987381e+02
217             	4.05097991e+02
218             	4.05203543e+02
219             	4.05303490e+02
220             	4.05388335e+02
221             	4.05459081e+02
222             	4.05515679e+02
223             	4.05560403e+02
224             	4.05596510e+02
225             	4.05626598e+02
226             	4.05651475e+02
227             	4.05673150e+02
228             	4.05698417e+02
229             	4.05729583e+02
230             	4.05767366e+02
231             	4.05815707e+02
232             	4.05874043e+02
233             	4.05948879e+02
234             	4.06038265e+02
235             	4.06148551e+02
236             	4.06269169e+02
237             	4.06397649e+02
238             	4.06511735e+02
239             	4.06635514e+02
240             	4.06746414e+02
241             	4.06841420e+02
242             	4.06922172e+02
243             	4.06985738e+02
244             	4.07029868e+02
245             	4.07058189e+02
246             	4.07073798e+02
247             	4.07080392e+02
248             	4.07085092e+02
249             	4.07091831e+02
250             	4.07111313e+02
251             	4.07138957e+02
252             	4.07180947e+02
253             	4.07243045e+02
254             	4.07320081e+02
255             	4.07406755e+02
256             	4.07492392e+02
257             	4.07560641e+02
258             	4.07647551e+02
259             	4.07718851e+02
260             	4.07765962e+02
261             	4.07790962e+02
262             	4.07796391e+02
263             	4.07785725e+02
264             	4.07766159e+02
265             	4.07743242e+02
266             	4.07724295e+02
267             	4.07711132e+02
268             	4.07710871e+02
269             	4.07731124e+02
270             	4.07769158e+02
271             	4.07819405e+02
272             	4.07880005e+02
273             	4.07952148e+02
274             	4.08005658e+02
275             	4.08083343e+02
276             	4.08141368e+02
277             	4.08185082e+02
278             	4.08208111e+02
279             	4.08213863e+02
280             	4.08204755e+02
281             	4.08184387e+02
282             	4.08156954e+02
283             	4.08129802e+02
284             	4.08107138e+02
285             	4.08095915e+02
286             	4.08110730e+02
287             	4.08140025e+02
288             	4.08180637e+02
289             	4.08224914e+02
290             	4.08279838e+02
291             	4.08344141e+02
292             	4.08405878e+02
293             	4.08464295e+02
294             	4.08517133e+02
295             	4.08559839e+02
296             	4.08594166e+02
297             	4.08617675e+02
298             	4.08620737e+02
299             	4.08610610e+02
300             	4.08589109e+02
301             	4.08560788e+02
302             	4.08534235e+02
303             	4.08516200e+02
304             	4.08520418e+02
305             	4.08539438e+02
306             	4.08574743e+02
307             	4.08615365e+02
308             	4.08666517e+02
309             	4.08709061e+02
310             	4.08772568e+02
311             	4.08830267e+02
312             	4.08876491e+02
313             	4.08895630e+02
314             	4.08900364e+02
315             	4.08884037e+02
316             	4.08859078e+02
317             	4.08827963e+02
318             	4.08800164e+02
319             	4.08768797e+02
320             	4.08752367e+02
321             	4.08758306e+02
322             	4.08773635e+02
323             	4.08808490e+02
324             	4.08850402e+02
325             	4.08884543e+02
326             	4.08896389e+02
327             	4.08941081e+02
328             	4.08972009e+02
329             	4.08983070e+02
330             	4.08973150e+02
331             	4.08953494e+02
332             	4.08917734e+02
333             	4.08872384e+02
334             	4.08825440e+02
335             	4.08784205e+02
336             	4.08749577e+02
337             	4.08729620e+02
338             	4.08742814e+02
339             	4.08769783e+02
340             	4.08803000e+02
341             	4.08839853e+02
342             	4.08884153e+02
343             	4.08939176e+02
344             	4.08994299e+02
345             	4.09022638e+02
346             	4.09057875e+02
347             	4.09076870e+02
348             	4.09078628e+02
349             	4.09068472e+02
350             	4.09046093e+02
351             	4.09020896e+02
352             	4.08995097e+02
353             	4.08983078e+02
354             	4.09009526e+02
355             	4.09040200e+02
356             	4.09078248e+02
357             	4.09121765e+02
358             	4.09165979e+02
359             	4.09195495e+02
360             	4.09234574e+02
361             	4.09251343e+02
362             	4.09249271e+02
363             	4.09233663e+02
364             	4.09202331e+02
365             	4.09163281e+02
366             	4.09119568e+02
367             	4.09085046e+02
368             	4.09066846e+02
369             	4.09055331e+02
370             	4.09076216e+02
371             	4.09103833e+02
372             	4.09143626e+02
373             	4.09189007e+02
374             	4.09235320e+02
375             	4.09282626e+02
376             	4.09333140e+02
377             	4.09386715e+02
378             	4.09431825e+02
379             	4.09463152e+02
380             	4.09484764e+02
381             	4.09495561e+02
382             	4.09497442e+02
383             	4.09493501e+02
384             	4.09478262e+02
385             	4.09449230e+02
386             	4.09411164e+02
387             	4.09368033e+02
388             	4.09321129e+02
389             	4.09272321e+02
390             	4.09222762e+02
391             	4.09172835e+02
392             	4.09123308e+02
393             	4.09083190e+02
394             	4.09052996e+02
395             	4.09032605e+02
396             	4.09023369e+02
397             	4.09031920e+02
398             	4.09066883e+02
399             	4.09126745e+02
400             	4.09197788e+02
401             	4.09280828e+02
402             	4.09361025e+02
403             	4.09429759e+02
404             	4.09505404e+02
405             	4.09561926e+02
406             	4.09601264e+02
407             	4.09621671e+02
408             	4.09623625e+02
409             	4.09607397e+02
410             	4.09576734e+02
411             	4.09535070e+02
412             	4.09487653e+02
413             	4.09441812e+02
414             	4.09400516e+02
415             	4.09367866e+02
416             	4.09360344e+02
417             	4.09374367e+02
418             	4.09408476e+02
419             	4.09450208e+02
420             	4.09495650e+02
421             	4.09520557e+02
422             	4.09571638e+02
423             	4.09616115e+02
424             	4.09639003e+02
425             	4.09640683e+02
426             	4.09622449e+02
427             	4.09589019e+02
428             	4.09545714e+02
429             	4.09492750e+02
430             	4.09433446e+02
431             	4.09376099e+02
432             	4.09327767e+02
433             	4.09295123e+02
434             	4.09289790e+02
435             	4.09308871e+02
436             	4.09338531e+02
437             	4.09378171e+02
438             	4.09421239e+02
439             	4.09441650e+02
440             	4.09476944e+02
441             	4.09503800e+02
442             	4.09511821e+02
443             	4.09499456e+02
444             	4.09473984e+02
445             	4.09438163e+02
446             	4.09392624e+02
447             	4.09345083e+02
448             	4.09300207e+02
449             	4.09259216e+02
450             	4.09225764e+02
451             	4.09196665e+02
452             	4.09176704e+02
453             	4.09166513e+02
454             	4.09164130e+02
455             	4.09170659e+02
456             	4.09210966e+02
457             	4.09268922e+02
458             	4.09340346e+02
459             	4.09411991e+02
460             	4.09487472e+02
461             	4.09566028e+02
462             	4.09640255e+02
463             	4.09698340e+02
464             	4.09752499e+02
465             	4.09785913e+02
466             	4.09795829e+02
467             	4.09786019e+02
468             	4.09759737e+02
469             	4.09724881e+02
470             	4.09682059e+02
471             	4.09635472e+02
472             	4.09586567e+02
473             	4.09542657e+02
474             	4.09500405e+02
475             	4.09462327e+02
476             	4.09432942e+02
477             	4.09410947e+02
478             	4.09397051e+02
479             	4.09393403e+02
480             	4.09403232e+02
481             	4.09429129e+02
482             	4.09452450e+02
483             	4.09467753e+02
484             	4.09484686e+02
485             	4.09495592e+02
486             	4.09496579e+02
487             	4.09487319e+02
488             	4.09472529e+02
489             	4.09453331e+02
490             	4.09573512e+02
491             	4.09683247e+02
492             	4.09780499e+02
493             	4.09869040e+02
494             	4.09953207e+02
495             	4.10031456e+02
496             	4.10104903e+02
497             	4.10173527e+02
498             	4.10238458e+02
499             	4.10299308e+02
500             	4.10355787e+02
501             	4.10407770e+02
502             	4.10456056e+02
503             	4.10501283e+02
504             	4.10547327e+02
505             	4.10591164e+02
506             	4.10634876e+02
507             	4.10679182e+02
508             	4.10725410e+02
509             	4.10775839e+02
510             	4.10829722e+02
511             	4.10887516e+02
512             	4.10948520e+02
513             	4.11012441e+02
514             	4.11079797e+02
515             	4.11154423e+02
516             	4.11235142e+02
517             	4.11327636e+02
518             	4.11429608e+02
519             	4.11540503e+02
520             	4.11654375e+02
521             	4.11765782e+02
522             	4.11871127e+02
523             	4.11967435e+02
524             	4.12052824e+02
525             	4.12126922e+02
526             	4.12189876e+02
527             	4.12241981e+02
528             	4.12283963e+02
529             	4.12318776e+02
530             	4.12349549e+02
531             	4.12377675e+02
532             	4.12406159e+02
533             	4.12434207e+02
534             	4.12461478e+02
535             	4.12486944e+02
536             	4.12509548e+02
537             	4.12525798e+02
538             	4.12534022e+02
539             	4.12536263e+02
540             	4.12533779e+02
541             	4.12526084e+02
542             	4.12513086e+02
543             	4.12495653e+02
544             	4.12474915e+02
545             	4.12451495e+02
546             	4.12427174e+02
547             	4.12401583e+02
548             	4.12376528e+02
549             	4.12352126e+02
550             	4.12329845e+02
551             	4.12315110e+02
552             	4.12303685e+02
553             	4.12296786e+02
554             	4.12294441e+02
555             	4.12301787e+02
556             	4.12317398e+02
557             	4.12339806e+02
558             	4.12367123e+02
559             	4.12401668e+02
560             	4.12443462e+02
561             	4.12498444e+02
562             	4.12563789e+02
563             	4.12644104e+02
564             	4.12732711e+02
565             	4.12825072e+02
566             	4.12915628e+02
567             	4.13012319e+02
568             	4.13100639e+02
569             	4.13175093e+02
570             	4.13241609e+02
571             	4.13289940e+02
572             	4.13318038e+02
573             	4.13331195e+02
574             	4.13332582e+02
575             	4.13325048e+02
576             	4.13310721e+02
577             	4.13293442e+02
578             	4.13279983e+02
579             	4.13273341e+02
580             	4.13279554e+02
581             	4.13299389e+02
582             	4.13333965e+02
583             	4.13372627e+02
584             	4.13432412e+02
585             	4.13510988e+02
586             	4.13594790e+02
587             	4.13681120e+02
588             	4.13764437e+02
589             	4.13837577e+02
590             	4.13898114e+02
591             	4.13945668e+02
592             	4.13978750e+02
593             	4.13990120e+02
594             	4.13985028e+02
595             	4.13967079e+02
596             	4.13942878e+02
597             	4.13910096e+02
598             	4.13879309e+02
599             	4.13845739e+02
600             	4.13812946e+02
601             	4.13784125e+02
602             	4.13772191e+02
603             	4.13771590e+02
604             	4.13792774e+02
605             	4.13845636e+02
606             	4.13910474e+02
607             	4.13984728e+02
608             	4.14063073e+02
609             	4.14144010e+02
610             	4.14226297e+02
611             	4.14319093e+02
612             	4.14408515e+02
613             	4.14500415e+02
614             	4.14582890e+02
615             	4.14639447e+02
616             	4.14674003e+02
617             	4.14686085e+02
618             	4.14680153e+02
619             	4.14659920e+02
620             	4.14631188e+02
621             	4.14603342e+02
622             	4.14579263e+02
623             	4.14562670e+02
624             	4.14558433e+02
625             	4.14583128e+02
626             	4.14622301e+02
627             	4.14672439e+02
628             	4.14730191e+02
629             	4.14778485e+02
630             	4.14813052e+02
631             	4.14878319e+02
632             	4.14923499e+02
633             	4.14942186e+02
634             	4.14940325e+02
635             	4.14920170e+02
636             	4.14887640e+02
637             	4.14843783e+02
638             	4.14791958e+02
639             	4.14742356e+02
640             	4.14694852e+02
641             	4.14654681e+02
642             	4.14642859e+02
643             	4.14645509e+02
644             	4.14661122e+02
645             	4.14685597e+02
646             	4.14718906e+02
647             	4.14754488e+02
648             	4.14778829e+02
649             	4.14803213e+02
650             	4.14847237e+02
651             	4.14878248e+02
652             	4.14894058e+02
653             	4.14902873e+02
654             	4.14893133e+02
655             	4.14874997e+02
656             	4.14855282e+02
657             	4.14835456e+02
658             	4.14823695e+02
659             	4.14828761e+02
660             	4.14866977e+02
661             	4.14918966e+02
662             	4.14979509e+02
663             	4.15039176e+02
664             	4.15100074e+02
665             	4.15168048e+02
666             	4.15226714e+02
667             	4.15288094e+02
668             	4.15342637e+02
669             	4.15379663e+02
670             	4.15398818e+02
671             	4.15402121e+02
672             	4.15393466e+02
673             	4.15375549e+02
674             	4.15343564e+02
675             	4.15304818e+02
676             	4.15267918e+02
677             	4.15239522e+02
678             	4.15225044e+02
679             	4.15238678e+02
680             	4.15271994e+02
681             	4.15324045e+02
682             	4.15382843e+02
683             	4.15445482e+02
684             	4.15502988e+02
685             	4.15553987e+02
686             	4.15605605e+02
687             	4.15669240e+02
688             	4.15726141e+02
689             	4.15786265e+02
690             	4.15836487e+02
691             	4.15866201e+02
692             	4.15880856e+02
693             	4.15875358e+02
694             	4.15857485e+02
695             	4.15829649e+02
696             	4.15790507e+02
697             	4.15745185e+02
698             	4.15694692e+02
699             	4.15643824e+02
700             	4.15594863e+02
701             	4.15550095e+02
702             	4.15507944e+02
703             	4.15467647e+02
704             	4.15432758e+02
705             	4.15406568e+02
706             	4.15382306e+02
707             	4.15357636e+02
708             	4.15335149e+02
709             	4.15315866e+02
710             	4.15297877e+02
711             	4.15284618e+02
712             	4.15280005e+02
713             	4.15283900e+02
714             	4.15296423e+02
715             	4.15326691e+02
716             	4.15365192e+02
717             	4.15412841e+02
718             	4.15466924e+02
719             	4.15526484e+02
720             	4.15586282e+02
721             	4.15643719e+02
722             	4.15690206e+02
723             	4.15738472e+02
724             	4.15775602e+02
725             	4.15793566e+02
726             	4.15794051e+02
727             	4.15779530e+02
728             	4.15755547e+02
729             	4.15721199e+02
730             	4.15680913e+02
731             	4.15636895e+02
732             	4.15590092e+02
733             	4.15541015e+02
734             	4.15491239e+02
735             	4.15441421e+02
736             	4.15392046e+02
737             	4.15342987e+02
738             	4.15304150e+02
739             	4.15271755e+02
740             	4.15245601e+02
741             	4.15230017e+02
742             	4.15230380e+02
743             	4.15258277e+02
744             	4.15304313e+02
745             	4.15365244e+02
746             	4.15431006e+02
747             	4.15488841e+02
748             	4.15540092e+02
749             	4.15587864e+02
750             	4.15624228e+02
751             	4.15644281e+02
752             	4.15644604e+02
753             	4.15632224e+02
754             	4.15609362e+02
755             	4.15579863e+02
756             	4.15548270e+02
757             	4.15514349e+02
758             	4.15478635e+02
759             	4.15441983e+02
760             	4.15410773e+02
761             	4.15379141e+02
762             	4.15354608e+02
763             	4.15338177e+02
764             	4.15330659e+02
765             	4.15340668e+02
766             	4.15388819e+02
767             	4.15458277e+02
768             	4.15538831e+02
769             	4.15623140e+02
770             	4.15704588e+02
771             	4.15783956e+02
772             	4.15886132e+02
773             	4.15971395e+02
774             	4.16052445e+02
775             	4.16116613e+02
776             	4.16154347e+02
777             	4.16173342e+02
778             	4.16166218e+02
779             	4.16140211e+02
780             	4.16104143e+02
781             	4.16058407e+02
782             	4.16006242e+02
783             	4.15947357e+02
784             	4.15898276e+02
785             	4.15873051e+02
786             	4.15874370e+02
787             	4.15890152e+02
788             	4.15923206e+02
789             	4.15947167e+02
790             	4.15967968e+02
791             	4.16000609e+02
792             	4.16035271e+02
793             	4.16074450e+02
794             	4.16110575e+02
795             	4.16145467e+02
796             	4.16176854e+02
797             	4.16199222e+02
798             	4.16221862e+02
799             	4.16236909e+02
800             	4.16248939e+02
801             	4.16255602e+02
802             	4.16248611e+02
803             	4.16229771e+02
804             	4.16197821e+02
805             	4.16157932e+02
806             	4.16108066e+02
807             	4.16053749e+02
808             	4.15996719e+02
809             	4.15934502e+02
810             	4.15871021e+02
811             	4.15806935e+02
812             	4.15751703e+02
813             	4.15718298e+02
814             	4.15701280e+02
815             	4.15686918e+02
816             	4.15699015e+02
817             	4.15708813e+02
818             	4.15740229e+02
819             	4.15790788e+02
820             	4.15847839e+02
821             	4.15899817e+02
822             	4.15942271e+02
823             	4.15979684e+02
824             	4.16008361e+02
825             	4.16028648e+02
826             	4.16033360e+02
827             	4.16025107e+02
828             	4.16005697e+02
829             	4.15973595e+02
830             	4.15933339e+02
831             	4.15887747e+02
832             	4.15838169e+02
833             	4.15785049e+02
834             	4.15729051e+02
835             	4.15675899e+02
836             	4.15627696e+02
837             	4.15584251e+02
838             	4.15551482e+02
839             	4.15525306e+02
840             	4.15518351e+02
841             	4.15542955e+02
842             	4.15568932e+02
843             	4.15607150e+02
844             	4.15665199e+02
845             	4.15727087e+02
846             	4.15788198e+02
847             	4.15856317e+02
848             	4.15920223e+02
849             	4.15967477e+02
850             	4.16006201e+02
851             	4.16024289e+02
852             	4.16030006e+02
853             	4.16016401e+02
854             	4.15985151e+02
855             	4.15941047e+02
856             	4.15887172e+02
857             	4.15829931e+02
858             	4.15774667e+02
859             	4.15724354e+02
860             	4.15683286e+02
861             	4.15651827e+02
862             	4.15647083e+02
863             	4.15683268e+02
864             	4.15731661e+02
865             	4.15785969e+02
866             	4.15843547e+02
867             	4.15903297e+02
868             	4.15946623e+02
869             	4.15990336e+02
870             	4.16019900e+02
871             	4.16031181e+02
872             	4.16022507e+02
873             	4.15995418e+02
874             	4.15955673e+02
875             	4.15905841e+02
876             	4.15848529e+02
877             	4.15787766e+02
878             	4.15722298e+02
879             	4.15656959e+02
880             	4.15592132e+02
881             	4.15536138e+02
882             	4.15490853e+02
883             	4.15458675e+02
884             	4.15450570e+02
885             	4.15474276e+02
886             	4.15500950e+02
887             	4.15553223e+02
888             	4.15607921e+02
889             	4.15666760e+02
890             	4.15726199e+02
891             	4.15788520e+02
892             	4.15841230e+02
893             	4.15882344e+02
894             	4.15913257e+02
895             	4.15925363e+02
896             	4.15913112e+02
897             	4.15886156e+02
898             	4.15853670e+02
899             	4.15812995e+02
900             	4.15763778e+02
901             	4.15715222e+02
902             	4.15670895e+02
903             	4.15637928e+02
904             	4.15621748e+02
905             	4.15643704e+02
906             	4.15656234e+02
907             	4.15687169e+02
908             	4.15739387e+02
909             	4.15801239e+02
910             	4.15863821e+02
911             	4.15928427e+02
912             	4.15977501e+02
913             	4.16022218e+02
914             	4.16050960e+02
915             	4.16062161e+02
916             	4.16050146e+02
917             	4.16022302e+02
918             	4.15980998e+02
919             	4.15932246e+02
920             	4.15882054e+02
921             	4.15842584e+02
922             	4.15812219e+02
923             	4.15802972e+02
924             	4.15811487e+02
925             	4.15831893e+02
926             	4.15864711e+02
927             	4.15909158e+02
928             	4.15957669e+02
929             	4.15995138e+02
930             	4.16016513e+02
931             	4.16036245e+02
932             	4.16037486e+02
933             	4.16021897e+02