# Region        : cellZone fluid
# Cells         : 8992
# Volume        : 1.73312004e+01
# Time          	volAverage(T)
1               	3.00000129e+02
2               	3.00000219e+02
3               	3.00000896e+02
4               	3.00001859e+02
5               	3.00002380e+02
6               	3.00003064e+02
7               	3.00003624e+02
8               	3.00004438e+02
9               	3.00005133e+02
10              	3.00006203e+02
11              	3.00007263e+02
12              	3.00009245e+02
13              	3.00011272e+02
14              	3.00013075e+02
15              	3.00014810e+02
16              	3.00016332e+02
17              	3.00017924e+02
18              	3.00019266e+02
19              	3.00021211e+02
20              	3.00022575e+02
21              	3.00023985e+02
22              	3.00025801e+02
23              	3.00027784e+02
24              	3.00029570e+02
25              	3.00030942e+02
26              	3.00033123e+02
27              	3.00036248e+02
28              	3.00038232e+02
29              	3.00040570e+02
30              	3.00042583e+02
31              	3.00045070e+02
32              	3.00047251e+02
33              	3.00049766e+02
34              	3.00052453e+02
35              	3.00055730e+02
36              	3.00058241e+02
37              	3.00061520e+02
38              	3.00064567e+02
39              	3.00066450e+02
40              	3.00069959e+02
41              	3.00073577e+02
42              	3.00077107e+02
43              	3.00080446e+02
44              	3.00082969e+02
45              	3.00083960e+02
46              	3.00086089e+02
47              	3.00088157e+02
48              	3.00090681e+02
49              	3.00092862e+02
50              	3.00095603e+02
51              	3.00098442e+02
52              	3.00101417e+02
53              	3.00104941e+02
54              	3.00107986e+02
55              	3.00111717e+02
56              	3.00114807e+02
57              	3.00116653e+02
58              	3.00119345e+02
59              	3.00124244e+02
60              	3.00128553e+02
61              	3.00131759e+02
62              	3.00134995e+02
63              	3.00137430e+02
64              	3.00140044e+02
65              	3.00141738e+02
66              	3.00143197e+02
67              	3.00149548e+02
68              	3.00152658e+02
69              	3.00156673e+02
70              	3.00160030e+02
71              	3.00163093e+02
72              	3.00163949e+02
73              	3.00166019e+02
74              	3.00168762e+02
75              	3.00171152e+02
76              	3.00173438e+02
77              	3.00175184e+02
78              	3.00177581e+02
79              	3.00180516e+02
80              	3.00183884e+02
81              	3.00185152e+02
82              	3.00187151e+02
83              	3.00188899e+02
84              	3.00190801e+02
85              	3.00192634e+02
86              	3.00194053e+02
87              	3.00195929e+02
88              	3.00198568e+02
89              	3.00201214e+02
90              	3.00204133e+02
91              	3.00204531e+02
92              	3.00206524e+02
93              	3.00207470e+02
94              	3.00208394e+02
95              	3.00209371e+02
96              	3.00210224e+02
97              	3.00211240e+02
98              	3.00212902e+02
99              	3.00214742e+02
100             	3.00217434e+02
101             	3.00217968e+02
102             	3.00219116e+02
103             	3.00220449e+02
104             	3.00221059e+02
105             	3.00222418e+02
106             	3.00223633e+02
107             	3.00225597e+02
108             	3.00227552e+02
109             	3.00229002e+02
110             	3.00230356e+02
111             	3.00232420e+02
112             	3.00235431e+02
113             	3.00235598e+02
114             	3.00236696e+02
115             	3.00238017e+02
116             	3.00238983e+02
117             	3.00239912e+02
118             	3.00241044e+02
119             	3.00242554e+02
120             	3.00244456e+02
121             	3.00246358e+02
122             	3.00248073e+02
123             	3.00248723e+02
124             	3.00249890e+02
125             	3.00251119e+02
126             	3.00251971e+02
127             	3.00252703e+02
128             	3.00253281e+02
129             	3.00254184e+02
130             	3.00255926e+02
131             	3.00258263e+02
132             	3.00258339e+02
133             	3.00258993e+02
134             	3.00259944e+02
135             	3.00261616e+02
136             	3.00262757e+02
137             	3.00263737e+02
138             	3.00264468e+02
139             	3.00265642e+02
140             	3.00266838e+02
141             	3.00267421e+02
142             	3.00268585e+02
143             	3.00269665e+02
144             	3.00271093e+02
145             	3.00272062e+02
146             	3.00273350e+02
147             	3.00274112e+02
148             	3.00273958e+02
149             	3.00274157e+02
150             	3.00274479e+02
151             	3.00275020e+02
152             	3.00275786e+02
153             	3.00276883e+02
154             	3.00277702e+02
155             	3.00278030e+02
156             	3.00278447e+02
157             	3.00279024e+02
158             	3.00279848e+02
159             	3.00280394e+02
160             	3.00280885e+02
161             	3.00281228e+02
162             	3.00281328e+02
163             	3.00281980e+02
164             	3.00282470e+02
165             	3.00282806e+02
166             	3.00283236e+02
167             	3.00283535e+02
168             	3.00283897e+02
169             	3.00284169e+02
170             	3.00285030e+02
171             	3.00284996e+02
172             	3.00285042e+02
173             	3.00285346e+02
174             	3.00285616e+02
175             	3.00285881e+02
176             	3.00286158e+02
177             	3.00286533e+02
178             	3.00286850e+02
179             	3.00287223e+02
180             	3.00287493e+02
181             	3.00287803e+02
182             	3.00288042e+02
183             	3.00288244e+02
184             	3.00288113e+02
185             	3.00288400e+02
186             	3.00288674e+02
187             	3.00288767e+02
188             	3.00288850e+02
189             	3.00289056e+02
190             	3.00289603e+02
191             	3.00289671e+02
192             	3.00289934e+02
193             	3.00290151e+02
194             	3.00290434e+02
195             	3.00290489e+02
196             	3.00290682e+02
197             	3.00290783e+02
198             	3.00290950e+02
199             	3.00291054e+02
200             	3.00291237e+02
201             	3.00291458e+02
202             	3.00291655e+02
203             	3.00291871e+02
204             	3.00291986e+02
205             	3.00292156e+02
206             	3.00292242e+02
207             	3.00292320e+02
208             	3.00292323e+02
209             	3.00292368e+02
210             	3.00292348e+02
211             	3.00292380e+02
212             	3.00292395e+02
213             	3.00292449e+02
214             	3.00292459e+02
215             	3.00292478e+02
216             	3.00292526e+02
217             	3.00292582e+02
218             	3.00292589e+02
219             	3.00292635e+02
220             	3.00292655e+02
221             	3.00292730e+02
222             	3.00292773e+02
223             	3.00292685e+02
224             	3.00292610e+02
225             	3.00292627e+02
226             	3.00292604e+02
227             	3.00292672e+02
228             	3.00292739e+02
229             	3.00292868e+02
230             	3.00292942e+02
231             	3.00293072e+02
232             	3.00293191e+02
233             	3.00293372e+02
234             	3.00293519e+02
235             	3.00293692e+02
236             	3.00293754e+02
237             	3.00293899e+02
238             	3.00294039e+02
239             	3.00294228e+02
240             	3.00294395e+02
241             	3.00294581e+02
242             	3.00294727e+02
243             	3.00294876e+02
244             	3.00295059e+02
245             	3.00295155e+02
246             	3.00295304e+02
247             	3.00295415e+02
248             	3.00295556e+02
249             	3.00295636e+02
250             	3.00295751e+02
251             	3.00295814e+02
252             	3.00295911e+02
253             	3.00295956e+02
254             	3.00296011e+02
255             	3.00296011e+02
256             	3.00296047e+02
257             	3.00296026e+02
258             	3.00296033e+02
259             	3.00296009e+02
260             	3.00296047e+02
261             	3.00295978e+02
262             	3.00295984e+02
263             	3.00295942e+02
264             	3.00295946e+02
265             	3.00295907e+02
266             	3.00295920e+02
267             	3.00295810e+02
268             	3.00295732e+02
269             	3.00295610e+02
270             	3.00295552e+02
271             	3.00295440e+02
272             	3.00295380e+02
273             	3.00295318e+02
274             	3.00295293e+02
275             	3.00295216e+02
276             	3.00295179e+02
277             	3.00295121e+02
278             	3.00295181e+02
279             	3.00295182e+02
280             	3.00295219e+02
281             	3.00295213e+02
282             	3.00295251e+02
283             	3.00295232e+02
284             	3.00295257e+02
285             	3.00295255e+02
286             	3.00295461e+02
287             	3.00295361e+02
288             	3.00295370e+02
289             	3.00295353e+02
290             	3.00295407e+02
291             	3.00295423e+02
292             	3.00295488e+02
293             	3.00295506e+02
294             	3.00295563e+02
295             	3.00295561e+02
296             	3.00295597e+02
297             	3.00295583e+02
298             	3.00295610e+02
299             	3.00295586e+02
300             	3.00295617e+02
301             	3.00295558e+02
302             	3.00295556e+02
303             	3.00295507e+02
304             	3.00295490e+02
305             	3.00295416e+02
306             	3.00295378e+02
307             	3.00295273e+02
308             	3.00295231e+02
309             	3.00295114e+02
310             	3.00295046e+02
311             	3.00294937e+02
312             	3.00294862e+02
313             	3.00294722e+02
314             	3.00294640e+02
315             	3.00294507e+02
316             	3.00294418e+02
317             	3.00294277e+02
318             	3.00294180e+02
319             	3.00294050e+02
320             	3.00293945e+02
321             	3.00293861e+02
322             	3.00293826e+02
323             	3.00293736e+02
324             	3.00293686e+02
325             	3.00293559e+02
326             	3.00293548e+02
327             	3.00293487e+02
328             	3.00293482e+02
329             	3.00293445e+02
330             	3.00293464e+02
331             	3.00293438e+02
332             	3.00293462e+02
333             	3.00293448e+02
334             	3.00293482e+02
335             	3.00293509e+02
336             	3.00293514e+02
337             	3.00293501e+02
338             	3.00293558e+02
339             	3.00293562e+02
340             	3.00293620e+02
341             	3.00293635e+02
342             	3.00293701e+02
343             	3.00293717e+02
344             	3.00293754e+02
345             	3.00293737e+02
346             	3.00293758e+02
347             	3.00293722e+02
348             	3.00293725e+02
349             	3.00293678e+02
350             	3.00293658e+02
351             	3.00293594e+02
352             	3.00293581e+02
353             	3.00293519e+02
354             	3.00293505e+02
355             	3.00293439e+02
356             	3.00293414e+02
357             	3.00293337e+02
358             	3.00293301e+02
359             	3.00293231e+02
360             	3.00293180e+02
361             	3.00293077e+02
362             	3.00293030e+02
363             	3.00292941e+02
364             	3.00292898e+02
365             	3.00292808e+02
366             	3.00292779e+02
367             	3.00292704e+02
368             	3.00292681e+02
369             	3.00292617e+02
370             	3.00292614e+02
371             	3.00292594e+02
372             	3.00292613e+02
373             	3.00292585e+02
374             	3.00292619e+02
375             	3.00292597e+02
376             	3.00292615e+02
377             	3.00292687e+02
378             	3.00292716e+02
379             	3.00292795e+02
380             	3.00292823e+02
381             	3.00292888e+02
382             	3.00292906e+02
383             	3.00292942e+02
384             	3.00292964e+02
385             	3.00293025e+02
386             	3.00293042e+02
387             	3.00293111e+02
388             	3.00293124e+02
389             	3.00293177e+02
390             	3.00293185e+02
391             	3.00293291e+02
392             	3.00293243e+02
393             	3.00293256e+02
394             	3.00293226e+02
395             	3.00293219e+02
396             	3.00293160e+02
397             	3.00293148e+02
398             	3.00293083e+02
399             	3.00293065e+02
400             	3.00292994e+02
401             	3.00292971e+02
402             	3.00292897e+02
403             	3.00292867e+02
404             	3.00292790e+02
405             	3.00292765e+02
406             	3.00292699e+02
407             	3.00292656e+02
408             	3.00292562e+02
409             	3.00292519e+02
410             	3.00292431e+02
411             	3.00292391e+02
412             	3.00292325e+02
413             	3.00292307e+02
414             	3.00292254e+02
415             	3.00292258e+02
416             	3.00292225e+02
417             	3.00292237e+02
418             	3.00292204e+02
419             	3.00292231e+02
420             	3.00292212e+02
421             	3.00292149e+02
422             	3.00292201e+02
423             	3.00292274e+02
424             	3.00292291e+02
425             	3.00292358e+02
426             	3.00292387e+02
427             	3.00292467e+02
428             	3.00292511e+02
429             	3.00292673e+02
430             	3.00292696e+02
431             	3.00292717e+02
432             	3.00292722e+02
433             	3.00292739e+02
434             	3.00292743e+02
435             	3.00292848e+02
436             	3.00292896e+02
437             	3.00292977e+02
438             	3.00293004e+02
439             	3.00293101e+02
440             	3.00293138e+02
441             	3.00293155e+02
442             	3.00293132e+02
443             	3.00293150e+02
444             	3.00293106e+02
445             	3.00293094e+02
446             	3.00293017e+02
447             	3.00292996e+02
448             	3.00292904e+02
449             	3.00292874e+02
450             	3.00292782e+02
451             	3.00292768e+02
452             	3.00292724e+02
453             	3.00292699e+02
454             	3.00292639e+02
455             	3.00292620e+02
456             	3.00292540e+02
457             	3.00292508e+02
458             	3.00292432e+02
459             	3.00292372e+02
460             	3.00292333e+02
461             	3.00292325e+02
462             	3.00292276e+02
463             	3.00292279e+02
464             	3.00292236e+02
465             	3.00292189e+02
466             	3.00292210e+02
467             	3.00292249e+02
468             	3.00292249e+02
469             	3.00292328e+02
470             	3.00292320e+02
471             	3.00292357e+02
472             	3.00292363e+02
473             	3.00292436e+02
474             	3.00292463e+02
475             	3.00292538e+02
476             	3.00292564e+02
477             	3.00292640e+02
478             	3.00292666e+02
479             	3.00292768e+02
480             	3.00292801e+02
481             	3.00292875e+02
482             	3.00292908e+02
483             	3.00292977e+02
484             	3.00292995e+02
485             	3.00293058e+02
486             	3.00293063e+02
487             	3.00293102e+02
488             	3.00293075e+02
489             	3.00293106e+02
490             	3.00293085e+02
491             	3.00293102e+02
492             	3.00293067e+02
493             	3.00293079e+02
494             	3.00293061e+02
495             	3.00293059e+02
496             	3.00293021e+02
497             	3.00293030e+02
498             	3.00292986e+02
499             	3.00292988e+02
500             	3.00292934e+02
501             	3.00292928e+02
502             	3.00292842e+02
503             	3.00292820e+02
504             	3.00292753e+02
505             	3.00292759e+02
506             	3.00292707e+02
507             	3.00292710e+02
508             	3.00292672e+02
509             	3.00292702e+02
510             	3.00292637e+02
511             	3.00292667e+02
512             	3.00292683e+02
513             	3.00292736e+02
514             	3.00292741e+02
515             	3.00292807e+02
516             	3.00292837e+02
517             	3.00292917e+02
518             	3.00292945e+02
519             	3.00293021e+02
520             	3.00293056e+02
521             	3.00293131e+02
522             	3.00293155e+02
523             	3.00293232e+02
524             	3.00293258e+02
525             	3.00293329e+02
526             	3.00293358e+02
527             	3.00293441e+02
528             	3.00293477e+02
529             	3.00293543e+02
530             	3.00293560e+02
531             	3.00293620e+02
532             	3.00293625e+02
533             	3.00293669e+02
534             	3.00293653e+02
535             	3.00293682e+02
536             	3.00293664e+02
537             	3.00293697e+02
538             	3.00293670e+02
539             	3.00293695e+02
540             	3.00293671e+02
541             	3.00293695e+02
542             	3.00293664e+02
543             	3.00293680e+02
544             	3.00293629e+02
545             	3.00293625e+02
546             	3.00293561e+02
547             	3.00293545e+02
548             	3.00293445e+02
549             	3.00293408e+02
550             	3.00293278e+02
551             	3.00293293e+02
552             	3.00293256e+02
553             	3.00293253e+02
554             	3.00293204e+02
555             	3.00293209e+02
556             	3.00293172e+02
557             	3.00293195e+02
558             	3.00293169e+02
559             	3.00293198e+02
560             	3.00293185e+02
561             	3.00293228e+02
562             	3.00293229e+02
563             	3.00293287e+02
564             	3.00293301e+02
565             	3.00293367e+02
566             	3.00293405e+02
567             	3.00293483e+02
568             	3.00293525e+02
569             	3.00293679e+02
570             	3.00293684e+02
571             	3.00293751e+02
572             	3.00293777e+02
573             	3.00293862e+02
574             	3.00293890e+02
575             	3.00293967e+02
576             	3.00293985e+02
577             	3.00294050e+02
578             	3.00294038e+02
579             	3.00294106e+02
580             	3.00294109e+02
581             	3.00294149e+02
582             	3.00294130e+02
583             	3.00294149e+02
584             	3.00294122e+02
585             	3.00294131e+02
586             	3.00294091e+02
587             	3.00294102e+02
588             	3.00294065e+02
589             	3.00294080e+02
590             	3.00294042e+02
591             	3.00294053e+02
592             	3.00294010e+02
593             	3.00294010e+02
594             	3.00293944e+02
595             	3.00293921e+02
596             	3.00293845e+02
597             	3.00293832e+02
598             	3.00293771e+02
599             	3.00293765e+02
600             	3.00293716e+02
601             	3.00293727e+02
602             	3.00293686e+02
603             	3.00293701e+02
604             	3.00293636e+02
605             	3.00293688e+02
606             	3.00293681e+02
607             	3.00293723e+02
608             	3.00293719e+02
609             	3.00293775e+02
610             	3.00293784e+02
611             	3.00293830e+02
612             	3.00293844e+02
613             	3.00293918e+02
614             	3.00293949e+02
615             	3.00294034e+02
616             	3.00294068e+02
617             	3.00294150e+02
618             	3.00294177e+02
619             	3.00294251e+02
620             	3.00294274e+02
621             	3.00294351e+02
622             	3.00294368e+02
623             	3.00294436e+02
624             	3.00294466e+02
625             	3.00294522e+02
626             	3.00294524e+02
627             	3.00294570e+02
628             	3.00294556e+02
629             	3.00294584e+02
630             	3.00294577e+02
631             	3.00294607e+02
632             	3.00294581e+02
633             	3.00294603e+02
634             	3.00294577e+02
635             	3.00294597e+02
636             	3.00294568e+02
637             	3.00294575e+02
638             	3.00294528e+02
639             	3.00294535e+02
640             	3.00294536e+02
641             	3.00294521e+02
642             	3.00294450e+02
643             	3.00294431e+02
644             	3.00294368e+02
645             	3.00294356e+02
646             	3.00294299e+02
647             	3.00294319e+02
648             	3.00294284e+02
649             	3.00294298e+02
650             	3.00294261e+02
651             	3.00294290e+02
652             	3.00294288e+02
653             	3.00294336e+02
654             	3.00294333e+02
655             	3.00294369e+02
656             	3.00294372e+02
657             	3.00294431e+02
658             	3.00294441e+02
659             	3.00294502e+02
660             	3.00294512e+02
661             	3.00294579e+02
662             	3.00294607e+02
663             	3.00294679e+02
664             	3.00294699e+02
665             	3.00294754e+02
666             	3.00294773e+02
667             	3.00294836e+02
668             	3.00294848e+02
669             	3.00294905e+02
670             	3.00294910e+02
671             	3.00294956e+02
672             	3.00294946e+02
673             	3.00294974e+02
674             	3.00294949e+02
675             	3.00294987e+02
676             	3.00294949e+02
677             	3.00294965e+02
678             	3.00294936e+02
679             	3.00294951e+02
680             	3.00294915e+02
681             	3.00294921e+02
682             	3.00294878e+02
683             	3.00294894e+02
684             	3.00294869e+02
685             	3.00294841e+02
686             	3.00294774e+02
687             	3.00294765e+02
688             	3.00294706e+02
689             	3.00294703e+02
690             	3.00294644e+02
691             	3.00294631e+02
692             	3.00294577e+02
693             	3.00294578e+02
694             	3.00294517e+02
695             	3.00294475e+02
696             	3.00294428e+02
697             	3.00294371e+02
698             	3.00294372e+02
699             	3.00294402e+02
700             	3.00294366e+02
701             	3.00294384e+02
702             	3.00294361e+02
703             	3.00294397e+02
704             	3.00294395e+02
705             	3.00294444e+02
706             	3.00294462e+02
707             	3.00294524e+02
708             	3.00294539e+02
709             	3.00294634e+02
710             	3.00294675e+02
711             	3.00294803e+02
712             	3.00294806e+02
713             	3.00294877e+02
714             	3.00294913e+02
715             	3.00294995e+02
716             	3.00295014e+02
717             	3.00295071e+02
718             	3.00295072e+02
719             	3.00295140e+02
720             	3.00295148e+02
721             	3.00295181e+02
722             	3.00295185e+02
723             	3.00295224e+02
724             	3.00295205e+02
725             	3.00295227e+02
726             	3.00295195e+02
727             	3.00295207e+02
728             	3.00295176e+02
729             	3.00295169e+02
730             	3.00295118e+02
731             	3.00295115e+02
732             	3.00295062e+02
733             	3.00295059e+02
734             	3.00295004e+02
735             	3.00294997e+02
736             	3.00294937e+02
737             	3.00294925e+02
738             	3.00294837e+02
739             	3.00294807e+02
740             	3.00294701e+02
741             	3.00294700e+02
742             	3.00294639e+02
743             	3.00294642e+02
744             	3.00294576e+02
745             	3.00294551e+02
746             	3.00294533e+02
747             	3.00294550e+02
748             	3.00294524e+02
749             	3.00294553e+02
750             	3.00294540e+02
751             	3.00294584e+02
752             	3.00294587e+02
753             	3.00294634e+02
754             	3.00294642e+02
755             	3.00294710e+02
756             	3.00294736e+02
757             	3.00294814e+02
758             	3.00294843e+02
759             	3.00294922e+02
760             	3.00294949e+02
761             	3.00295029e+02
762             	3.00295048e+02
763             	3.00295112e+02
764             	3.00295129e+02
765             	3.00295187e+02
766             	3.00295192e+02
767             	3.00295245e+02
768             	3.00295253e+02
769             	3.00295304e+02
770             	3.00295296e+02
771             	3.00295337e+02
772             	3.00295323e+02
773             	3.00295348e+02
774             	3.00295325e+02
775             	3.00295338e+02
776             	3.00295309e+02
777             	3.00295335e+02
778             	3.00295306e+02
779             	3.00295323e+02
780             	3.00295281e+02
781             	3.00295287e+02
782             	3.00295239e+02
783             	3.00295236e+02
784             	3.00295165e+02
785             	3.00295147e+02
786             	3.00295083e+02
787             	3.00295078e+02
788             	3.00295027e+02
789             	3.00295031e+02
790             	3.00294990e+02
791             	3.00295005e+02
792             	3.00294978e+02
793             	3.00294999e+02
794             	3.00294943e+02
795             	3.00294982e+02
796             	3.00294966e+02
797             	3.00295004e+02
798             	3.00294996e+02
799             	3.00295044e+02
800             	3.00295044e+02
801             	3.00295102e+02
802             	3.00295121e+02
803             	3.00295200e+02
804             	3.00295225e+02
805             	3.00295298e+02
806             	3.00295324e+02
807             	3.00295392e+02
808             	3.00295410e+02
809             	3.00295475e+02
810             	3.00295488e+02
811             	3.00295548e+02
812             	3.00295552e+02
813             	3.00295598e+02
814             	3.00295588e+02
815             	3.00295618e+02
816             	3.00295621e+02
817             	3.00295694e+02
818             	3.00295629e+02
819             	3.00295635e+02
820             	3.00295601e+02
821             	3.00295618e+02
822             	3.00295584e+02
823             	3.00295597e+02
824             	3.00295526e+02
825             	3.00295516e+02
826             	3.00295404e+02
827             	3.00295440e+02
828             	3.00295400e+02
829             	3.00295340e+02
830             	3.00295253e+02
831             	3.00295308e+02
832             	3.00295263e+02
833             	3.00295270e+02
834             	3.00295230e+02
835             	3.00295241e+02
836             	3.00295204e+02
837             	3.00295199e+02
838             	3.00295134e+02
839             	3.00295119e+02
840             	3.00295090e+02
841             	3.00295103e+02
842             	3.00295080e+02
843             	3.00295101e+02
844             	3.00295098e+02
845             	3.00295144e+02
846             	3.00295139e+02
847             	3.00295196e+02
848             	3.00295211e+02
849             	3.00295273e+02
850             	3.00295287e+02
851             	3.00295361e+02
852             	3.00295410e+02
853             	3.00295506e+02
854             	3.00295548e+02
855             	3.00295664e+02
856             	3.00295710e+02
857             	3.00295790e+02
858             	3.00295815e+02
859             	3.00295888e+02
860             	3.00295899e+02
861             	3.00295951e+02
862             	3.00295940e+02
863             	3.00295969e+02
864             	3.00295943e+02
865             	3.00295965e+02
866             	3.00295926e+02
867             	3.00295932e+02
868             	3.00295881e+02
869             	3.00295874e+02
870             	3.00295811e+02
871             	3.00295791e+02
872             	3.00295713e+02
873             	3.00295661e+02
874             	3.00295587e+02
875             	3.00295567e+02
876             	3.00295472e+02
877             	3.00295440e+02
878             	3.00295366e+02
879             	3.00295348e+02
880             	3.00295294e+02
881             	3.00295281e+02
882             	3.00295211e+02
883             	3.00295204e+02
884             	3.00295157e+02
885             	3.00295159e+02
886             	3.00295134e+02
887             	3.00295179e+02
888             	3.00295178e+02
889             	3.00295210e+02
890             	3.00295208e+02
891             	3.00295264e+02
892             	3.00295281e+02
893             	3.00295350e+02
894             	3.00295346e+02
895             	3.00295434e+02
896             	3.00295481e+02
897             	3.00295567e+02
898             	3.00295603e+02
899             	3.00295699e+02
900             	3.00295732e+02
901             	3.00295823e+02
902             	3.00295874e+02
903             	3.00295964e+02
904             	3.00296005e+02
905             	3.00296075e+02
906             	3.00296087e+02
907             	3.00296139e+02
908             	3.00296125e+02
909             	3.00296146e+02
910             	3.00296109e+02
911             	3.00296143e+02
912             	3.00296114e+02
913             	3.00296134e+02
914             	3.00296107e+02
915             	3.00296163e+02
916             	3.00296086e+02
917             	3.00296078e+02
918             	3.00296027e+02
919             	3.00296023e+02
920             	3.00295948e+02
921             	3.00295930e+02
922             	3.00295875e+02
923             	3.00295874e+02
924             	3.00295796e+02
925             	3.00295779e+02
926             	3.00295720e+02
927             	3.00295718e+02
928             	3.00295673e+02
929             	3.00295687e+02
930             	3.00295653e+02
931             	3.00295682e+02
932             	3.00295653e+02
933             	3.00295672e+02