# Region        : cellZone fluid
# Cells         : 8350
# Volume        : 1.64873610e+01
# Time          	volAverage(T)
1               	2.99999981e+02
2               	3.00000082e+02
3               	3.00000977e+02
4               	3.00002397e+02
5               	3.00003491e+02
6               	3.00004659e+02
7               	3.00005799e+02
8               	3.00007202e+02
9               	3.00008736e+02
10              	3.00010847e+02
11              	3.00013069e+02
12              	3.00015323e+02
13              	3.00018068e+02
14              	3.00021098e+02
15              	3.00023358e+02
16              	3.00027187e+02
17              	3.00030599e+02
18              	3.00034117e+02
19              	3.00037227e+02
20              	3.00040294e+02
21              	3.00043206e+02
22              	3.00046958e+02
23              	3.00050108e+02
24              	3.00053308e+02
25              	3.00056342e+02
26              	3.00060045e+02
27              	3.00064101e+02
28              	3.00067690e+02
29              	3.00072114e+02
30              	3.00076558e+02
31              	3.00080100e+02
32              	3.00084281e+02
33              	3.00089034e+02
34              	3.00093751e+02
35              	3.00098243e+02
36              	3.00103218e+02
37              	3.00108375e+02
38              	3.00113278e+02
39              	3.00118795e+02
40              	3.00123087e+02
41              	3.00128879e+02
42              	3.00132871e+02
43              	3.00137656e+02
44              	3.00142140e+02
45              	3.00146892e+02
46              	3.00151345e+02
47              	3.00154334e+02
48              	3.00159310e+02
49              	3.00163607e+02
50              	3.00167817e+02
51              	3.00171764e+02
52              	3.00175228e+02
53              	3.00178680e+02
54              	3.00182182e+02
55              	3.00185600e+02
56              	3.00188847e+02
57              	3.00193815e+02
58              	3.00197497e+02
59              	3.00201991e+02
60              	3.00206567e+02
61              	3.00210079e+02
62              	3.00213952e+02
63              	3.00217691e+02
64              	3.00221283e+02
65              	3.00224675e+02
66              	3.00227589e+02
67              	3.00232046e+02
68              	3.00236097e+02
69              	3.00239450e+02
70              	3.00242297e+02
71              	3.00245300e+02
72              	3.00248508e+02
73              	3.00251907e+02
74              	3.00254840e+02
75              	3.00257573e+02
76              	3.00263196e+02
77              	3.00266233e+02
78              	3.00269958e+02
79              	3.00272848e+02
80              	3.00275366e+02
81              	3.00278867e+02
82              	3.00281942e+02
83              	3.00285400e+02
84              	3.00289467e+02
85              	3.00293082e+02
86              	3.00296961e+02
87              	3.00299116e+02
88              	3.00303556e+02
89              	3.00307004e+02
90              	3.00309493e+02
91              	3.00312412e+02
92              	3.00314580e+02
93              	3.00316810e+02
94              	3.00318974e+02
95              	3.00321036e+02
96              	3.00323602e+02
97              	3.00325730e+02
98              	3.00327654e+02
99              	3.00329766e+02
100             	3.00332573e+02
101             	3.00335120e+02
102             	3.00337223e+02
103             	3.00339393e+02
104             	3.00341320e+02
105             	3.00343379e+02
106             	3.00346434e+02
107             	3.00349159e+02
108             	3.00352357e+02
109             	3.00355228e+02
110             	3.00358735e+02
111             	3.00361581e+02
112             	3.00364141e+02
113             	3.00366111e+02
114             	3.00367009e+02
115             	3.00368605e+02
116             	3.00369787e+02
117             	3.00370843e+02
118             	3.00372775e+02
119             	3.00374617e+02
120             	3.00376396e+02
121             	3.00377645e+02
122             	3.00379379e+02
123             	3.00380339e+02
124             	3.00382418e+02
125             	3.00385441e+02
126             	3.00386410e+02
127             	3.00387350e+02
128             	3.00389591e+02
129             	3.00391601e+02
130             	3.00393977e+02
131             	3.00395484e+02
132             	3.00396478e+02
133             	3.00397157e+02
134             	3.00399409e+02
135             	3.00399725e+02
136             	3.00401433e+02
137             	3.00402418e+02
138             	3.00403039e+02
139             	3.00402588e+02
140             	3.00401924e+02
141             	3.00402234e+02
142             	3.00403203e+02
143             	3.00404301e+02
144             	3.00405780e+02
145             	3.00407603e+02
146             	3.00410431e+02
147             	3.00412548e+02
148             	3.00414434e+02
149             	3.00416938e+02
150             	3.00417923e+02
151             	3.00420050e+02
152             	3.00419325e+02
153             	3.00419812e+02
154             	3.00421040e+02
155             	3.00421030e+02
156             	3.00420636e+02
157             	3.00420112e+02
158             	3.00421160e+02
159             	3.00421977e+02
160             	3.00424281e+02
161             	3.00425026e+02
162             	3.00425435e+02
163             	3.00426368e+02
164             	3.00426930e+02
165             	3.00428360e+02
166             	3.00428768e+02
167             	3.00429260e+02
168             	3.00430214e+02
169             	3.00430976e+02
170             	3.00430542e+02
171             	3.00430870e+02
172             	3.00432307e+02
173             	3.00432407e+02
174             	3.00432932e+02
175             	3.00433663e+02
176             	3.00433997e+02
177             	3.00434595e+02
178             	3.00434815e+02
179             	3.00435555e+02
180             	3.00435756e+02
181             	3.00436281e+02
182             	3.00436677e+02
183             	3.00437495e+02
184             	3.00439129e+02
185             	3.00439949e+02
186             	3.00440530e+02
187             	3.00441865e+02
188             	3.00443117e+02
189             	3.00443742e+02
190             	3.00443975e+02
191             	3.00443870e+02
192             	3.00443844e+02
193             	3.00444195e+02
194             	3.00444285e+02
195             	3.00444294e+02
196             	3.00444756e+02
197             	3.00445367e+02
198             	3.00445590e+02
199             	3.00445726e+02
200             	3.00445503e+02
201             	3.00445533e+02
202             	3.00445039e+02
203             	3.00445309e+02
204             	3.00444989e+02
205             	3.00445341e+02
206             	3.00446186e+02
207             	3.00446548e+02
208             	3.00447598e+02
209             	3.00448377e+02
210             	3.00449107e+02
211             	3.00449406e+02
212             	3.00449856e+02
213             	3.00450300e+02
214             	3.00450669e+02
215             	3.00451051e+02
216             	3.00451502e+02
217             	3.00451953e+02
218             	3.00452154e+02
219             	3.00452643e+02
220             	3.00453213e+02
221             	3.00453733e+02
222             	3.00453767e+02
223             	3.00453870e+02
224             	3.00453944e+02
225             	3.00454105e+02
226             	3.00454346e+02
227             	3.00454567e+02
228             	3.00454949e+02
229             	3.00455806e+02
230             	3.00455714e+02
231             	3.00455988e+02
232             	3.00456082e+02
233             	3.00456964e+02
234             	3.00457250e+02
235             	3.00456901e+02
236             	3.00456856e+02
237             	3.00456906e+02
238             	3.00457145e+02
239             	3.00457359e+02
240             	3.00457858e+02
241             	3.00458046e+02
242             	3.00458669e+02
243             	3.00458833e+02
244             	3.00458833e+02
245             	3.00458566e+02
246             	3.00458746e+02
247             	3.00458832e+02
248             	3.00458957e+02
249             	3.00459204e+02
250             	3.00459291e+02
251             	3.00459215e+02
252             	3.00459402e+02
253             	3.00459295e+02
254             	3.00459109e+02
255             	3.00458856e+02
256             	3.00458610e+02
257             	3.00458347e+02
258             	3.00458470e+02
259             	3.00458411e+02
260             	3.00458500e+02
261             	3.00458200e+02
262             	3.00458109e+02
263             	3.00457926e+02
264             	3.00457491e+02
265             	3.00457156e+02
266             	3.00457045e+02
267             	3.00456973e+02
268             	3.00456854e+02
269             	3.00456907e+02
270             	3.00457018e+02
271             	3.00457137e+02
272             	3.00457182e+02
273             	3.00457169e+02
274             	3.00457127e+02
275             	3.00457290e+02
276             	3.00457432e+02
277             	3.00457699e+02
278             	3.00457871e+02
279             	3.00458051e+02
280             	3.00458222e+02
281             	3.00458528e+02
282             	3.00458496e+02
283             	3.00458968e+02
284             	3.00459371e+02
285             	3.00459543e+02
286             	3.00459593e+02
287             	3.00459527e+02
288             	3.00459556e+02
289             	3.00459726e+02
290             	3.00459856e+02
291             	3.00459474e+02
292             	3.00459184e+02
293             	3.00458753e+02
294             	3.00458248e+02
295             	3.00457828e+02
296             	3.00457338e+02
297             	3.00457602e+02
298             	3.00456961e+02
299             	3.00456445e+02
300             	3.00456021e+02
301             	3.00455857e+02
302             	3.00455822e+02
303             	3.00455592e+02
304             	3.00455700e+02
305             	3.00455780e+02
306             	3.00456186e+02
307             	3.00456125e+02
308             	3.00456028e+02
309             	3.00455744e+02
310             	3.00456043e+02
311             	3.00456300e+02
312             	3.00456277e+02
313             	3.00456230e+02
314             	3.00456074e+02
315             	3.00456690e+02
316             	3.00456405e+02
317             	3.00456641e+02
318             	3.00456989e+02
319             	3.00457074e+02
320             	3.00457347e+02
321             	3.00456919e+02
322             	3.00456819e+02
323             	3.00456579e+02
324             	3.00456563e+02
325             	3.00456547e+02
326             	3.00456532e+02
327             	3.00456486e+02
328             	3.00456474e+02
329             	3.00456408e+02
330             	3.00456341e+02
331             	3.00456299e+02
332             	3.00455697e+02
333             	3.00455870e+02
334             	3.00455811e+02
335             	3.00455847e+02
336             	3.00455673e+02
337             	3.00455489e+02
338             	3.00455359e+02
339             	3.00455369e+02
340             	3.00455517e+02
341             	3.00455294e+02
342             	3.00455917e+02
343             	3.00455870e+02
344             	3.00455557e+02
345             	3.00455480e+02
346             	3.00455192e+02
347             	3.00455146e+02
348             	3.00455162e+02
349             	3.00455126e+02
350             	3.00455100e+02
351             	3.00455094e+02
352             	3.00455112e+02
353             	3.00455153e+02
354             	3.00455222e+02
355             	3.00455291e+02
356             	3.00455121e+02
357             	3.00455251e+02
358             	3.00455379e+02
359             	3.00455458e+02
360             	3.00455536e+02
361             	3.00455551e+02
362             	3.00455671e+02
363             	3.00455625e+02
364             	3.00455348e+02
365             	3.00455306e+02
366             	3.00455182e+02
367             	3.00455032e+02
368             	3.00454849e+02
369             	3.00455156e+02
370             	3.00455153e+02
371             	3.00455457e+02
372             	3.00455034e+02
373             	3.00455011e+02
374             	3.00455344e+02
375             	3.00455082e+02
376             	3.00455259e+02
377             	3.00455462e+02
378             	3.00455719e+02
379             	3.00455979e+02
380             	3.00456146e+02
381             	3.00456241e+02
382             	3.00456137e+02
383             	3.00455922e+02
384             	3.00456343e+02
385             	3.00456587e+02
386             	3.00456738e+02
387             	3.00456836e+02
388             	3.00456687e+02
389             	3.00457410e+02
390             	3.00456860e+02
391             	3.00457326e+02
392             	3.00457176e+02
393             	3.00457155e+02
394             	3.00457673e+02
395             	3.00457724e+02
396             	3.00457833e+02
397             	3.00457926e+02
398             	3.00457979e+02
399             	3.00457671e+02
400             	3.00456644e+02
401             	3.00456999e+02
402             	3.00457016e+02
403             	3.00456710e+02
404             	3.00456431e+02
405             	3.00456269e+02
406             	3.00456549e+02
407             	3.00456231e+02
408             	3.00456722e+02
409             	3.00456591e+02
410             	3.00456134e+02
411             	3.00455972e+02
412             	3.00455901e+02
413             	3.00456121e+02
414             	3.00456285e+02
415             	3.00456352e+02
416             	3.00455830e+02
417             	3.00456399e+02
418             	3.00456659e+02
419             	3.00456809e+02
420             	3.00456859e+02
421             	3.00456657e+02
422             	3.00456426e+02
423             	3.00456447e+02
424             	3.00457004e+02
425             	3.00457701e+02
426             	3.00457082e+02
427             	3.00456748e+02
428             	3.00456585e+02
429             	3.00456626e+02
430             	3.00456839e+02
431             	3.00457170e+02
432             	3.00456596e+02
433             	3.00456185e+02
434             	3.00456472e+02
435             	3.00456531e+02
436             	3.00456211e+02
437             	3.00456039e+02
438             	3.00455979e+02
439             	3.00455832e+02
440             	3.00455556e+02
441             	3.00455297e+02
442             	3.00455037e+02
443             	3.00455345e+02
444             	3.00454953e+02
445             	3.00455625e+02
446             	3.00455126e+02
447             	3.00454725e+02
448             	3.00454503e+02
449             	3.00454354e+02
450             	3.00454328e+02
451             	3.00454431e+02
452             	3.00454793e+02
453             	3.00454139e+02
454             	3.00454669e+02
455             	3.00454959e+02
456             	3.00454952e+02
457             	3.00455081e+02
458             	3.00455062e+02
459             	3.00455021e+02
460             	3.00454882e+02
461             	3.00454705e+02
462             	3.00454476e+02
463             	3.00454209e+02
464             	3.00454195e+02
465             	3.00454004e+02
466             	3.00453948e+02
467             	3.00454742e+02
468             	3.00454312e+02
469             	3.00453965e+02
470             	3.00453770e+02
471             	3.00453654e+02
472             	3.00453938e+02
473             	3.00454156e+02
474             	3.00454395e+02
475             	3.00454753e+02
476             	3.00455069e+02
477             	3.00454581e+02
478             	3.00455005e+02
479             	3.00455311e+02
480             	3.00455291e+02
481             	3.00455302e+02
482             	3.00454973e+02
483             	3.00454869e+02
484             	3.00454674e+02
485             	3.00454640e+02
486             	3.00454551e+02
487             	3.00455298e+02
488             	3.00455242e+02
489             	3.00455027e+02
490             	3.00454746e+02
491             	3.00454795e+02
492             	3.00454514e+02
493             	3.00454586e+02
494             	3.00454497e+02
495             	3.00454498e+02
496             	3.00454562e+02
497             	3.00454695e+02
498             	3.00454855e+02
499             	3.00454993e+02
500             	3.00454829e+02
501             	3.00454960e+02
502             	3.00455016e+02
503             	3.00455045e+02
504             	3.00454966e+02
505             	3.00454727e+02
506             	3.00454441e+02
507             	3.00454203e+02
508             	3.00453984e+02
509             	3.00453875e+02
510             	3.00453728e+02
511             	3.00454673e+02
512             	3.00454175e+02
513             	3.00454011e+02
514             	3.00453853e+02
515             	3.00453783e+02
516             	3.00453771e+02
517             	3.00453801e+02
518             	3.00453824e+02
519             	3.00453917e+02
520             	3.00454004e+02
521             	3.00454196e+02
522             	3.00454395e+02
523             	3.00454481e+02
524             	3.00454302e+02
525             	3.00454644e+02
526             	3.00454689e+02
527             	3.00454713e+02
528             	3.00454704e+02
529             	3.00454748e+02
530             	3.00454727e+02
531             	3.00454740e+02
532             	3.00454754e+02
533             	3.00455009e+02
534             	3.00455080e+02
535             	3.00454989e+02
536             	3.00454818e+02
537             	3.00454822e+02
538             	3.00454363e+02
539             	3.00454014e+02
540             	3.00453693e+02
541             	3.00454042e+02
542             	3.00453550e+02
543             	3.00453366e+02
544             	3.00453421e+02
545             	3.00453612e+02
546             	3.00453813e+02
547             	3.00454044e+02
548             	3.00454189e+02
549             	3.00454176e+02
550             	3.00454262e+02
551             	3.00454425e+02
552             	3.00454151e+02
553             	3.00454576e+02
554             	3.00454653e+02
555             	3.00454876e+02
556             	3.00455076e+02
557             	3.00455191e+02
558             	3.00455406e+02
559             	3.00455543e+02
560             	3.00455702e+02
561             	3.00455627e+02
562             	3.00455672e+02
563             	3.00455488e+02
564             	3.00455075e+02
565             	3.00454785e+02
566             	3.00455439e+02
567             	3.00455005e+02
568             	3.00454907e+02
569             	3.00455142e+02
570             	3.00455254e+02
571             	3.00455636e+02
572             	3.00455945e+02
573             	3.00456192e+02
574             	3.00456511e+02
575             	3.00456071e+02
576             	3.00456426e+02
577             	3.00456619e+02
578             	3.00456541e+02
579             	3.00456436e+02
580             	3.00456573e+02
581             	3.00456651e+02
582             	3.00456764e+02
583             	3.00456989e+02
584             	3.00457334e+02
585             	3.00457824e+02
586             	3.00457990e+02
587             	3.00458355e+02
588             	3.00458520e+02
589             	3.00458486e+02
590             	3.00458844e+02
591             	3.00458765e+02
592             	3.00458809e+02
593             	3.00458471e+02
594             	3.00458214e+02
595             	3.00457834e+02
596             	3.00457499e+02
597             	3.00457352e+02
598             	3.00457093e+02
599             	3.00456717e+02
600             	3.00456652e+02
601             	3.00456491e+02
602             	3.00456349e+02
603             	3.00456359e+02
604             	3.00456382e+02
605             	3.00456594e+02
606             	3.00456685e+02
607             	3.00456861e+02
608             	3.00457121e+02
609             	3.00457137e+02
610             	3.00457195e+02
611             	3.00457192e+02
612             	3.00457101e+02
613             	3.00457155e+02
614             	3.00457153e+02
615             	3.00457188e+02
616             	3.00456642e+02
617             	3.00456878e+02
618             	3.00457031e+02
619             	3.00457262e+02
620             	3.00457114e+02
621             	3.00457048e+02
622             	3.00457764e+02
623             	3.00457384e+02
624             	3.00457401e+02
625             	3.00456781e+02
626             	3.00456559e+02
627             	3.00456051e+02
628             	3.00455718e+02
629             	3.00455538e+02
630             	3.00455448e+02
631             	3.00455511e+02
632             	3.00455606e+02
633             	3.00455783e+02
634             	3.00455789e+02
635             	3.00455895e+02
636             	3.00456139e+02
637             	3.00456433e+02
638             	3.00456800e+02
639             	3.00456977e+02
640             	3.00456761e+02
641             	3.00457002e+02
642             	3.00457140e+02
643             	3.00457280e+02
644             	3.00457311e+02
645             	3.00457441e+02
646             	3.00457503e+02
647             	3.00457380e+02
648             	3.00457441e+02
649             	3.00457614e+02
650             	3.00457757e+02
651             	3.00457952e+02
652             	3.00458189e+02
653             	3.00458037e+02
654             	3.00457986e+02
655             	3.00457992e+02
656             	3.00457397e+02
657             	3.00457216e+02
658             	3.00456797e+02
659             	3.00456479e+02
660             	3.00456312e+02
661             	3.00456183e+02
662             	3.00456178e+02
663             	3.00456212e+02
664             	3.00456371e+02
665             	3.00456534e+02
666             	3.00456765e+02
667             	3.00456985e+02
668             	3.00457049e+02
669             	3.00457172e+02
670             	3.00457146e+02
671             	3.00457343e+02
672             	3.00457501e+02
673             	3.00457501e+02
674             	3.00457782e+02
675             	3.00457985e+02
676             	3.00458041e+02
677             	3.00458008e+02
678             	3.00457944e+02
679             	3.00457370e+02
680             	3.00457171e+02
681             	3.00457010e+02
682             	3.00456866e+02
683             	3.00456894e+02
684             	3.00457038e+02
685             	3.00456655e+02
686             	3.00456602e+02
687             	3.00456346e+02
688             	3.00455990e+02
689             	3.00455872e+02
690             	3.00455605e+02
691             	3.00455767e+02
692             	3.00455832e+02
693             	3.00455886e+02
694             	3.00456135e+02
695             	3.00456388e+02
696             	3.00456622e+02
697             	3.00456869e+02
698             	3.00457362e+02
699             	3.00457539e+02
700             	3.00457275e+02
701             	3.00457475e+02
702             	3.00457587e+02
703             	3.00457491e+02
704             	3.00457418e+02
705             	3.00457241e+02
706             	3.00457077e+02
707             	3.00456901e+02
708             	3.00457217e+02
709             	3.00456942e+02
710             	3.00456684e+02
711             	3.00457565e+02
712             	3.00456907e+02
713             	3.00456575e+02
714             	3.00456387e+02
715             	3.00456227e+02
716             	3.00456276e+02
717             	3.00456447e+02
718             	3.00456664e+02
719             	3.00456795e+02
720             	3.00457043e+02
721             	3.00457162e+02
722             	3.00456748e+02
723             	3.00457273e+02
724             	3.00457432e+02
725             	3.00457609e+02
726             	3.00457524e+02
727             	3.00457499e+02
728             	3.00457535e+02
729             	3.00457560e+02
730             	3.00457598e+02
731             	3.00457794e+02
732             	3.00458071e+02
733             	3.00458265e+02
734             	3.00458363e+02
735             	3.00458388e+02
736             	3.00458654e+02
737             	3.00458361e+02
738             	3.00458734e+02
739             	3.00458166e+02
740             	3.00458154e+02
741             	3.00457795e+02
742             	3.00457653e+02
743             	3.00457569e+02
744             	3.00457582e+02
745             	3.00457622e+02
746             	3.00457752e+02
747             	3.00457890e+02
748             	3.00458098e+02
749             	3.00458285e+02
750             	3.00458430e+02
751             	3.00458500e+02
752             	3.00458409e+02
753             	3.00458705e+02
754             	3.00458795e+02
755             	3.00458772e+02
756             	3.00458845e+02
757             	3.00459012e+02
758             	3.00459134e+02
759             	3.00459045e+02
760             	3.00459146e+02
761             	3.00459494e+02
762             	3.00459679e+02
763             	3.00459672e+02
764             	3.00459935e+02
765             	3.00460067e+02
766             	3.00460119e+02
767             	3.00460490e+02
768             	3.00460175e+02
769             	3.00459895e+02
770             	3.00459739e+02
771             	3.00459579e+02
772             	3.00459597e+02
773             	3.00459694e+02
774             	3.00459806e+02
775             	3.00460010e+02
776             	3.00460274e+02
777             	3.00460301e+02
778             	3.00460501e+02
779             	3.00460651e+02
780             	3.00460410e+02
781             	3.00460647e+02
782             	3.00460942e+02
783             	3.00461065e+02
784             	3.00461039e+02
785             	3.00460957e+02
786             	3.00460894e+02
787             	3.00460948e+02
788             	3.00461051e+02
789             	3.00461294e+02
790             	3.00461573e+02
791             	3.00461828e+02
792             	3.00461805e+02
793             	3.00462150e+02
794             	3.00462123e+02
795             	3.00461740e+02
796             	3.00461694e+02
797             	3.00461760e+02
798             	3.00461661e+02
799             	3.00461256e+02
800             	3.00460978e+02
801             	3.00460779e+02
802             	3.00460592e+02
803             	3.00460539e+02
804             	3.00460526e+02
805             	3.00460655e+02
806             	3.00460799e+02
807             	3.00461101e+02
808             	3.00461282e+02
809             	3.00461446e+02
810             	3.00461568e+02
811             	3.00461594e+02
812             	3.00461596e+02
813             	3.00460903e+02
814             	3.00461182e+02
815             	3.00461328e+02
816             	3.00461302e+02
817             	3.00461201e+02
818             	3.00461016e+02
819             	3.00460936e+02
820             	3.00461211e+02
821             	3.00461125e+02
822             	3.00461932e+02
823             	3.00461312e+02
824             	3.00460820e+02
825             	3.00460944e+02
826             	3.00460952e+02
827             	3.00461083e+02
828             	3.00461206e+02
829             	3.00461127e+02
830             	3.00460309e+02
831             	3.00460630e+02
832             	3.00460636e+02
833             	3.00460458e+02
834             	3.00460501e+02
835             	3.00460443e+02
836             	3.00460309e+02
837             	3.00460187e+02
838             	3.00460765e+02
839             	3.00460483e+02
840             	3.00460570e+02
841             	3.00460760e+02
842             	3.00460464e+02
843             	3.00460778e+02
844             	3.00460476e+02
845             	3.00460427e+02
846             	3.00460323e+02
847             	3.00460532e+02
848             	3.00460675e+02
849             	3.00460282e+02
850             	3.00460670e+02
851             	3.00460708e+02
852             	3.00460618e+02
853             	3.00460482e+02
854             	3.00460463e+02
855             	3.00460347e+02
856             	3.00460201e+02
857             	3.00460079e+02
858             	3.00460032e+02
859             	3.00459861e+02
860             	3.00459716e+02
861             	3.00459547e+02
862             	3.00459296e+02
863             	3.00458732e+02
864             	3.00458251e+02
865             	3.00458024e+02
866             	3.00457727e+02
867             	3.00457495e+02
868             	3.00457466e+02
869             	3.00458046e+02
870             	3.00457775e+02
871             	3.00457816e+02
872             	3.00457686e+02
873             	3.00457608e+02
874             	3.00457625e+02
875             	3.00457494e+02
876             	3.00457377e+02
877             	3.00457651e+02
878             	3.00457945e+02
879             	3.00458105e+02
880             	3.00458153e+02
881             	3.00458059e+02
882             	3.00457823e+02
883             	3.00457994e+02
884             	3.00457933e+02
885             	3.00457854e+02
886             	3.00457726e+02
887             	3.00457780e+02
888             	3.00458012e+02
889             	3.00457853e+02
890             	3.00457951e+02
891             	3.00457643e+02
892             	3.00457880e+02
893             	3.00457657e+02
894             	3.00457016e+02
895             	3.00456579e+02
896             	3.00456124e+02
897             	3.00456065e+02
898             	3.00455792e+02
899             	3.00455645e+02
900             	3.00455665e+02
901             	3.00455803e+02
902             	3.00455830e+02
903             	3.00455988e+02
904             	3.00456099e+02
905             	3.00456153e+02
906             	3.00456256e+02
907             	3.00456170e+02
908             	3.00456070e+02
909             	3.00456213e+02
910             	3.00456320e+02
911             	3.00456435e+02
912             	3.00456260e+02
913             	3.00456229e+02
914             	3.00456266e+02
915             	3.00456266e+02
916             	3.00456378e+02
917             	3.00456453e+02
918             	3.00456471e+02
919             	3.00456292e+02
920             	3.00456840e+02
921             	3.00456152e+02
922             	3.00455908e+02
923             	3.00455782e+02
924             	3.00455304e+02
925             	3.00455068e+02
926             	3.00454911e+02
927             	3.00454713e+02
928             	3.00454596e+02
929             	3.00454530e+02
930             	3.00454601e+02
931             	3.00454651e+02
932             	3.00454800e+02
933             	3.00454563e+02