# Region        : cellZone pcb
# Cells         : 522
# Volume        : 1.01796392e+00
# Time          	volAverage(T)
1               	3.00009810e+02
2               	3.00029014e+02
3               	3.00056655e+02
4               	3.00091713e+02
5               	3.00132569e+02
6               	3.00179041e+02
7               	3.00231171e+02
8               	3.00287866e+02
9               	3.00349272e+02
10              	3.00415679e+02
11              	3.00487036e+02
12              	3.00562274e+02
13              	3.00641592e+02
14              	3.00725327e+02
15              	3.00812184e+02
16              	3.00898334e+02
17              	3.00987758e+02
18              	3.01077026e+02
19              	3.01167175e+02
20              	3.01260411e+02
21              	3.01354361e+02
22              	3.01451030e+02
23              	3.01549474e+02
24              	3.01651646e+02
25              	3.01760947e+02
26              	3.01870800e+02
27              	3.01975571e+02
28              	3.02079135e+02
29              	3.02184441e+02
30              	3.02290752e+02
31              	3.02395208e+02
32              	3.02498455e+02
33              	3.02605951e+02
34              	3.02714847e+02
35              	3.02820640e+02
36              	3.02927788e+02
37              	3.03034819e+02
38              	3.03139008e+02
39              	3.03242858e+02
40              	3.03346884e+02
41              	3.03450282e+02
42              	3.03550763e+02
43              	3.03652370e+02
44              	3.03749636e+02
45              	3.03847540e+02
46              	3.03950160e+02
47              	3.04055258e+02
48              	3.04160760e+02
49              	3.04258166e+02
50              	3.04355497e+02
51              	3.04458611e+02
52              	3.04564823e+02
53              	3.04668070e+02
54              	3.04767981e+02
55              	3.04863272e+02
56              	3.04957425e+02
57              	3.05051870e+02
58              	3.05139497e+02
59              	3.05226079e+02
60              	3.05313916e+02
61              	3.05400595e+02
62              	3.05485402e+02
63              	3.05568719e+02
64              	3.05656966e+02
65              	3.05748618e+02
66              	3.05838923e+02
67              	3.05929227e+02
68              	3.06018435e+02
69              	3.06108739e+02
70              	3.06200026e+02
71              	3.06288913e+02
72              	3.06371658e+02
73              	3.06449494e+02
74              	3.06526625e+02
75              	3.06597912e+02
76              	3.06663382e+02
77              	3.06730956e+02
78              	3.06798559e+02
79              	3.06870666e+02
80              	3.06947661e+02
81              	3.07025533e+02
82              	3.07103245e+02
83              	3.07179655e+02
84              	3.07252768e+02
85              	3.07324747e+02
86              	3.07399501e+02
87              	3.07476396e+02
88              	3.07549880e+02
89              	3.07624612e+02
90              	3.07698239e+02
91              	3.07772555e+02
92              	3.07849479e+02
93              	3.07921695e+02
94              	3.07988288e+02
95              	3.08061491e+02
96              	3.08130895e+02
97              	3.08192803e+02
98              	3.08255085e+02
99              	3.08319207e+02
100             	3.08386053e+02
101             	3.08454317e+02
102             	3.08520884e+02
103             	3.08587405e+02
104             	3.08653555e+02
105             	3.08717889e+02
106             	3.08778817e+02
107             	3.08836001e+02
108             	3.08895943e+02
109             	3.08957060e+02
110             	3.09015550e+02
111             	3.09069608e+02
112             	3.09125341e+02
113             	3.09178818e+02
114             	3.09229097e+02
115             	3.09280076e+02
116             	3.09325852e+02
117             	3.09374249e+02
118             	3.09434892e+02
119             	3.09493843e+02
120             	3.09547096e+02
121             	3.09602664e+02
122             	3.09652966e+02
123             	3.09697677e+02
124             	3.09745280e+02
125             	3.09795725e+02
126             	3.09848141e+02
127             	3.09900780e+02
128             	3.09950200e+02
129             	3.09999018e+02
130             	3.10048367e+02
131             	3.10103186e+02
132             	3.10158897e+02
133             	3.10209673e+02
134             	3.10260828e+02
135             	3.10307813e+02
136             	3.10350799e+02
137             	3.10392729e+02
138             	3.10432299e+02
139             	3.10467213e+02
140             	3.10505809e+02
141             	3.10548722e+02
142             	3.10588843e+02
143             	3.10628550e+02
144             	3.10669412e+02
145             	3.10711095e+02
146             	3.10754823e+02
147             	3.10799079e+02
148             	3.10841884e+02
149             	3.10880864e+02
150             	3.10910791e+02
151             	3.10937736e+02
152             	3.10962317e+02
153             	3.10990022e+02
154             	3.11015517e+02
155             	3.11041707e+02
156             	3.11076903e+02
157             	3.11105852e+02
158             	3.11135637e+02
159             	3.11172250e+02
160             	3.11206443e+02
161             	3.11238790e+02
162             	3.11270484e+02
163             	3.11305076e+02
164             	3.11339646e+02
165             	3.11371260e+02
166             	3.11400445e+02
167             	3.11431337e+02
168             	3.11466079e+02
169             	3.11501398e+02
170             	3.11534577e+02
171             	3.11563355e+02
172             	3.11589187e+02
173             	3.11609399e+02
174             	3.11634465e+02
175             	3.11657302e+02
176             	3.11673662e+02
177             	3.11693612e+02
178             	3.11718985e+02
179             	3.11748145e+02
180             	3.11778495e+02
181             	3.11802267e+02
182             	3.11823954e+02
183             	3.11847383e+02
184             	3.11874904e+02
185             	3.11904535e+02
186             	3.11933802e+02
187             	3.11962811e+02
188             	3.11991879e+02
189             	3.12023343e+02
190             	3.12051829e+02
191             	3.12078698e+02
192             	3.12100449e+02
193             	3.12118259e+02
194             	3.12137224e+02
195             	3.12158377e+02
196             	3.12181675e+02
197             	3.12206883e+02
198             	3.12234905e+02
199             	3.12265568e+02
200             	3.12292821e+02
201             	3.12315148e+02
202             	3.12335870e+02
203             	3.12361332e+02
204             	3.12387233e+02
205             	3.12409599e+02
206             	3.12433071e+02
207             	3.12460644e+02
208             	3.12489824e+02
209             	3.12509778e+02
210             	3.12521210e+02
211             	3.12538513e+02
212             	3.12559169e+02
213             	3.12580810e+02
214             	3.12597858e+02
215             	3.12613644e+02
216             	3.12636086e+02
217             	3.12663673e+02
218             	3.12688482e+02
219             	3.12712260e+02
220             	3.12734440e+02
221             	3.12754888e+02
222             	3.12777082e+02
223             	3.12800710e+02
224             	3.12813059e+02
225             	3.12817908e+02
226             	3.12821910e+02
227             	3.12829281e+02
228             	3.12839405e+02
229             	3.12851691e+02
230             	3.12870810e+02
231             	3.12892319e+02
232             	3.12911591e+02
233             	3.12922118e+02
234             	3.12928135e+02
235             	3.12938550e+02
236             	3.12954280e+02
237             	3.12972144e+02
238             	3.12989384e+02
239             	3.13005982e+02
240             	3.13023592e+02
241             	3.13043632e+02
242             	3.13056991e+02
243             	3.13060947e+02
244             	3.13066218e+02
245             	3.13074227e+02
246             	3.13083321e+02
247             	3.13093877e+02
248             	3.13106142e+02
249             	3.13120535e+02
250             	3.13137482e+02
251             	3.13155685e+02
252             	3.13174246e+02
253             	3.13187449e+02
254             	3.13197403e+02
255             	3.13210058e+02
256             	3.13224462e+02
257             	3.13239059e+02
258             	3.13253476e+02
259             	3.13269228e+02
260             	3.13282203e+02
261             	3.13292049e+02
262             	3.13301313e+02
263             	3.13311272e+02
264             	3.13322881e+02
265             	3.13340331e+02
266             	3.13354097e+02
267             	3.13362781e+02
268             	3.13374038e+02
269             	3.13388619e+02
270             	3.13403839e+02
271             	3.13420188e+02
272             	3.13437310e+02
273             	3.13454566e+02
274             	3.13472483e+02
275             	3.13490130e+02
276             	3.13506884e+02
277             	3.13524185e+02
278             	3.13538464e+02
279             	3.13552521e+02
280             	3.13567415e+02
281             	3.13576553e+02
282             	3.13580417e+02
283             	3.13580353e+02
284             	3.13582129e+02
285             	3.13587113e+02
286             	3.13593368e+02
287             	3.13602571e+02
288             	3.13613523e+02
289             	3.13624354e+02
290             	3.13634427e+02
291             	3.13643461e+02
292             	3.13651973e+02
293             	3.13660210e+02
294             	3.13668010e+02
295             	3.13677665e+02
296             	3.13688131e+02
297             	3.13697942e+02
298             	3.13707256e+02
299             	3.13716517e+02
300             	3.13725059e+02
301             	3.13732894e+02
302             	3.13743891e+02
303             	3.13751479e+02
304             	3.13752709e+02
305             	3.13754846e+02
306             	3.13759106e+02
307             	3.13765317e+02
308             	3.13773518e+02
309             	3.13783647e+02
310             	3.13795935e+02
311             	3.13810019e+02
312             	3.13823656e+02
313             	3.13836818e+02
314             	3.13850570e+02
315             	3.13863731e+02
316             	3.13876679e+02
317             	3.13885485e+02
318             	3.13893058e+02
319             	3.13900412e+02
320             	3.13904993e+02
321             	3.13908927e+02
322             	3.13913718e+02
323             	3.13921265e+02
324             	3.13930087e+02
325             	3.13935129e+02
326             	3.13938270e+02
327             	3.13942516e+02
328             	3.13947246e+02
329             	3.13951307e+02
330             	3.13955410e+02
331             	3.13960302e+02
332             	3.13966851e+02
333             	3.13974847e+02
334             	3.13981703e+02
335             	3.13989271e+02
336             	3.13997651e+02
337             	3.14005785e+02
338             	3.14014590e+02
339             	3.14022920e+02
340             	3.14028977e+02
341             	3.14033589e+02
342             	3.14037398e+02
343             	3.14038564e+02
344             	3.14042096e+02
345             	3.14044503e+02
346             	3.14046243e+02
347             	3.14049395e+02
348             	3.14055553e+02
349             	3.14062466e+02
350             	3.14069791e+02
351             	3.14078508e+02
352             	3.14088212e+02
353             	3.14095395e+02
354             	3.14102519e+02
355             	3.14112393e+02
356             	3.14123163e+02
357             	3.14132808e+02
358             	3.14140401e+02
359             	3.14146874e+02
360             	3.14151077e+02
361             	3.14154208e+02
362             	3.14153169e+02
363             	3.14154757e+02
364             	3.14154436e+02
365             	3.14155017e+02
366             	3.14156809e+02
367             	3.14159560e+02
368             	3.14164343e+02
369             	3.14171061e+02
370             	3.14181540e+02
371             	3.14193260e+02
372             	3.14204744e+02
373             	3.14215948e+02
374             	3.14222538e+02
375             	3.14225481e+02
376             	3.14229777e+02
377             	3.14235494e+02
378             	3.14240712e+02
379             	3.14246096e+02
380             	3.14252076e+02
381             	3.14257077e+02
382             	3.14260673e+02
383             	3.14263867e+02
384             	3.14269830e+02
385             	3.14276057e+02
386             	3.14282323e+02
387             	3.14291309e+02
388             	3.14297936e+02
389             	3.14297972e+02
390             	3.14302529e+02
391             	3.14306749e+02
392             	3.14309966e+02
393             	3.14314138e+02
394             	3.14321547e+02
395             	3.14330303e+02
396             	3.14337658e+02
397             	3.14344268e+02
398             	3.14349005e+02
399             	3.14351711e+02
400             	3.14353989e+02
401             	3.14356158e+02
402             	3.14358571e+02
403             	3.14361939e+02
404             	3.14365689e+02
405             	3.14369311e+02
406             	3.14372774e+02
407             	3.14376350e+02
408             	3.14379968e+02
409             	3.14383369e+02
410             	3.14386395e+02
411             	3.14389089e+02
412             	3.14391751e+02
413             	3.14395154e+02
414             	3.14398466e+02
415             	3.14401977e+02
416             	3.14405531e+02
417             	3.14409074e+02
418             	3.14412860e+02
419             	3.14416905e+02
420             	3.14421241e+02
421             	3.14426050e+02
422             	3.14431508e+02
423             	3.14437330e+02
424             	3.14443584e+02
425             	3.14449181e+02
426             	3.14454992e+02
427             	3.14463590e+02
428             	3.14472242e+02
429             	3.14479766e+02
430             	3.14486518e+02
431             	3.14493920e+02
432             	3.14500425e+02
433             	3.14505440e+02
434             	3.14510462e+02
435             	3.14517055e+02
436             	3.14525753e+02
437             	3.14531995e+02
438             	3.14535419e+02
439             	3.14535571e+02
440             	3.14538259e+02
441             	3.14543707e+02
442             	3.14549392e+02
443             	3.14555277e+02
444             	3.14560806e+02
445             	3.14566573e+02
446             	3.14570936e+02
447             	3.14573338e+02
448             	3.14574836e+02
449             	3.14575973e+02
450             	3.14577634e+02
451             	3.14580248e+02
452             	3.14583548e+02
453             	3.14587246e+02
454             	3.14591195e+02
455             	3.14595377e+02
456             	3.14599363e+02
457             	3.14602712e+02
458             	3.14605531e+02
459             	3.14608191e+02
460             	3.14611163e+02
461             	3.14614376e+02
462             	3.14617627e+02
463             	3.14620904e+02
464             	3.14624136e+02
465             	3.14627493e+02
466             	3.14631035e+02
467             	3.14634816e+02
468             	3.14638629e+02
469             	3.14642415e+02
470             	3.14646322e+02
471             	3.14650275e+02
472             	3.14654180e+02
473             	3.14658026e+02
474             	3.14661889e+02
475             	3.14665875e+02
476             	3.14669888e+02
477             	3.14673959e+02
478             	3.14678423e+02
479             	3.14684765e+02
480             	3.14691258e+02
481             	3.14696477e+02
482             	3.14701143e+02
483             	3.14705903e+02
484             	3.14710945e+02
485             	3.14715167e+02
486             	3.14718722e+02
487             	3.14722400e+02
488             	3.14725486e+02
489             	3.14728084e+02
490             	3.14731173e+02
491             	3.14734459e+02
492             	3.14737895e+02
493             	3.14742116e+02
494             	3.14746379e+02
495             	3.14750432e+02
496             	3.14753969e+02
497             	3.14755867e+02
498             	3.14756551e+02
499             	3.14757258e+02
500             	3.14758521e+02
501             	3.14760480e+02
502             	3.14762835e+02
503             	3.14766103e+02
504             	3.14771020e+02
505             	3.14775273e+02
506             	3.14778161e+02
507             	3.14778732e+02
508             	3.14778994e+02
509             	3.14779911e+02
510             	3.14781052e+02
511             	3.14782232e+02
512             	3.14783623e+02
513             	3.14785285e+02
514             	3.14787287e+02
515             	3.14789351e+02
516             	3.14791452e+02
517             	3.14793399e+02
518             	3.14795202e+02
519             	3.14797491e+02
520             	3.14799493e+02
521             	3.14801227e+02
522             	3.14803127e+02
523             	3.14805392e+02
524             	3.14807929e+02
525             	3.14810681e+02
526             	3.14814027e+02
527             	3.14818243e+02
528             	3.14822942e+02
529             	3.14826993e+02
530             	3.14831623e+02
531             	3.14836667e+02
532             	3.14841161e+02
533             	3.14845236e+02
534             	3.14849020e+02
535             	3.14852801e+02
536             	3.14856358e+02
537             	3.14859430e+02
538             	3.14862162e+02
539             	3.14865267e+02
540             	3.14867470e+02
541             	3.14870440e+02
542             	3.14874313e+02
543             	3.14875648e+02
544             	3.14875451e+02
545             	3.14874650e+02
546             	3.14874312e+02
547             	3.14875620e+02
548             	3.14878277e+02
549             	3.14881046e+02
550             	3.14883585e+02
551             	3.14886065e+02
552             	3.14888512e+02
553             	3.14890974e+02
554             	3.14892649e+02
555             	3.14892981e+02
556             	3.14893021e+02
557             	3.14893237e+02
558             	3.14893906e+02
559             	3.14894917e+02
560             	3.14896211e+02
561             	3.14897793e+02
562             	3.14899478e+02
563             	3.14901162e+02
564             	3.14902484e+02
565             	3.14903720e+02
566             	3.14904851e+02
567             	3.14906192e+02
568             	3.14907687e+02
569             	3.14909266e+02
570             	3.14910696e+02
571             	3.14912343e+02
572             	3.14914310e+02
573             	3.14916334e+02
574             	3.14918380e+02
575             	3.14920526e+02
576             	3.14922709e+02
577             	3.14924895e+02
578             	3.14927212e+02
579             	3.14929899e+02
580             	3.14933261e+02
581             	3.14937100e+02
582             	3.14940617e+02
583             	3.14943835e+02
584             	3.14946804e+02
585             	3.14949261e+02
586             	3.14950924e+02
587             	3.14951947e+02
588             	3.14953409e+02
589             	3.14955390e+02
590             	3.14956929e+02
591             	3.14958624e+02
592             	3.14960864e+02
593             	3.14963221e+02
594             	3.14965244e+02
595             	3.14966983e+02
596             	3.14968638e+02
597             	3.14969685e+02
598             	3.14970285e+02
599             	3.14970721e+02
600             	3.14971212e+02
601             	3.14972185e+02
602             	3.14974172e+02
603             	3.14976240e+02
604             	3.14977413e+02
605             	3.14978331e+02
606             	3.14979195e+02
607             	3.14978988e+02
608             	3.14977899e+02
609             	3.14977372e+02
610             	3.14977040e+02
611             	3.14976309e+02
612             	3.14975477e+02
613             	3.14975323e+02
614             	3.14975860e+02
615             	3.14976749e+02
616             	3.14977611e+02
617             	3.14978249e+02
618             	3.14979419e+02
619             	3.14981070e+02
620             	3.14982265e+02
621             	3.14983474e+02
622             	3.14984796e+02
623             	3.14985907e+02
624             	3.14986763e+02
625             	3.14987537e+02
626             	3.14988316e+02
627             	3.14988968e+02
628             	3.14989839e+02
629             	3.14991814e+02
630             	3.14995473e+02
631             	3.14997763e+02
632             	3.14998729e+02
633             	3.15000220e+02
634             	3.15001600e+02
635             	3.15003009e+02
636             	3.15004335e+02
637             	3.15005407e+02
638             	3.15006692e+02
639             	3.15009411e+02
640             	3.15012501e+02
641             	3.15014952e+02
642             	3.15016756e+02
643             	3.15018035e+02
644             	3.15019093e+02
645             	3.15020220e+02
646             	3.15021789e+02
647             	3.15022979e+02
648             	3.15024331e+02
649             	3.15024929e+02
650             	3.15022901e+02
651             	3.15020698e+02
652             	3.15019007e+02
653             	3.15018739e+02
654             	3.15019379e+02
655             	3.15021141e+02
656             	3.15023140e+02
657             	3.15024759e+02
658             	3.15026311e+02
659             	3.15027938e+02
660             	3.15027157e+02
661             	3.15026132e+02
662             	3.15026137e+02
663             	3.15026078e+02
664             	3.15025554e+02
665             	3.15024723e+02
666             	3.15023926e+02
667             	3.15023499e+02
668             	3.15023632e+02
669             	3.15024403e+02
670             	3.15025367e+02
671             	3.15025301e+02
672             	3.15024362e+02
673             	3.15023600e+02
674             	3.15023371e+02
675             	3.15023575e+02
676             	3.15024153e+02
677             	3.15025078e+02
678             	3.15026236e+02
679             	3.15027780e+02
680             	3.15030529e+02
681             	3.15034276e+02
682             	3.15037420e+02
683             	3.15039417e+02
684             	3.15040531e+02
685             	3.15041944e+02
686             	3.15043659e+02
687             	3.15045066e+02
688             	3.15046099e+02
689             	3.15046689e+02
690             	3.15046967e+02
691             	3.15047978e+02
692             	3.15050100e+02
693             	3.15051093e+02
694             	3.15051811e+02
695             	3.15052448e+02
696             	3.15052748e+02
697             	3.15053298e+02
698             	3.15054039e+02
699             	3.15054897e+02
700             	3.15055830e+02
701             	3.15056929e+02
702             	3.15058032e+02
703             	3.15059002e+02
704             	3.15059454e+02
705             	3.15058156e+02
706             	3.15056158e+02
707             	3.15054763e+02
708             	3.15054047e+02
709             	3.15054499e+02
710             	3.15055998e+02
711             	3.15057020e+02
712             	3.15057715e+02
713             	3.15058240e+02
714             	3.15058413e+02
715             	3.15057679e+02
716             	3.15056170e+02
717             	3.15054406e+02
718             	3.15053004e+02
719             	3.15052067e+02
720             	3.15051450e+02
721             	3.15051028e+02
722             	3.15050659e+02
723             	3.15050304e+02
724             	3.15050129e+02
725             	3.15050109e+02
726             	3.15050211e+02
727             	3.15050200e+02
728             	3.15050156e+02
729             	3.15050166e+02
730             	3.15050254e+02
731             	3.15050454e+02
732             	3.15050803e+02
733             	3.15051283e+02
734             	3.15051859e+02
735             	3.15052637e+02
736             	3.15053709e+02
737             	3.15055147e+02
738             	3.15057179e+02
739             	3.15058906e+02
740             	3.15060607e+02
741             	3.15062346e+02
742             	3.15063923e+02
743             	3.15065362e+02
744             	3.15066682e+02
745             	3.15067866e+02
746             	3.15068986e+02
747             	3.15070126e+02
748             	3.15071224e+02
749             	3.15072160e+02
750             	3.15072895e+02
751             	3.15073891e+02
752             	3.15075490e+02
753             	3.15076017e+02
754             	3.15075595e+02
755             	3.15075127e+02
756             	3.15074610e+02
757             	3.15074289e+02
758             	3.15074433e+02
759             	3.15074722e+02
760             	3.15075076e+02
761             	3.15075481e+02
762             	3.15075469e+02
763             	3.15075575e+02
764             	3.15076082e+02
765             	3.15076650e+02
766             	3.15076980e+02
767             	3.15076173e+02
768             	3.15074891e+02
769             	3.15073814e+02
770             	3.15072919e+02
771             	3.15072043e+02
772             	3.15071068e+02
773             	3.15070089e+02
774             	3.15069212e+02
775             	3.15068456e+02
776             	3.15067784e+02
777             	3.15067106e+02
778             	3.15066711e+02
779             	3.15066776e+02
780             	3.15067290e+02
781             	3.15067257e+02
782             	3.15066831e+02
783             	3.15066738e+02
784             	3.15066983e+02
785             	3.15067495e+02
786             	3.15068200e+02
787             	3.15068715e+02
788             	3.15069554e+02
789             	3.15070827e+02
790             	3.15072435e+02
791             	3.15074734e+02
792             	3.15076613e+02
793             	3.15078445e+02
794             	3.15079735e+02
795             	3.15080427e+02
796             	3.15081514e+02
797             	3.15082497e+02
798             	3.15083187e+02
799             	3.15084136e+02
800             	3.15085570e+02
801             	3.15086617e+02
802             	3.15086908e+02
803             	3.15086708e+02
804             	3.15086192e+02
805             	3.15085831e+02
806             	3.15085673e+02
807             	3.15085653e+02
808             	3.15085755e+02
809             	3.15085904e+02
810             	3.15085949e+02
811             	3.15085993e+02
812             	3.15085932e+02
813             	3.15085929e+02
814             	3.15086011e+02
815             	3.15085661e+02
816             	3.15083640e+02
817             	3.15081240e+02
818             	3.15080015e+02
819             	3.15079655e+02
820             	3.15079763e+02
821             	3.15080012e+02
822             	3.15080206e+02
823             	3.15079888e+02
824             	3.15079172e+02
825             	3.15077967e+02
826             	3.15076561e+02
827             	3.15075304e+02
828             	3.15074383e+02
829             	3.15073757e+02
830             	3.15073007e+02
831             	3.15072299e+02
832             	3.15071825e+02
833             	3.15071543e+02
834             	3.15071379e+02
835             	3.15071187e+02
836             	3.15071185e+02
837             	3.15071452e+02
838             	3.15072377e+02
839             	3.15074447e+02
840             	3.15076908e+02
841             	3.15078940e+02
842             	3.15080144e+02
843             	3.15079932e+02
844             	3.15078729e+02
845             	3.15077722e+02
846             	3.15077478e+02
847             	3.15078557e+02
848             	3.15080601e+02
849             	3.15082490e+02
850             	3.15084129e+02
851             	3.15085562e+02
852             	3.15086821e+02
853             	3.15087892e+02
854             	3.15088746e+02
855             	3.15089458e+02
856             	3.15089674e+02
857             	3.15089364e+02
858             	3.15088990e+02
859             	3.15088746e+02
860             	3.15088509e+02
861             	3.15088295e+02
862             	3.15088154e+02
863             	3.15088187e+02
864             	3.15088309e+02
865             	3.15088260e+02
866             	3.15087894e+02
867             	3.15087021e+02
868             	3.15085068e+02
869             	3.15083197e+02
870             	3.15082309e+02
871             	3.15082472e+02
872             	3.15083887e+02
873             	3.15084919e+02
874             	3.15085514e+02
875             	3.15085512e+02
876             	3.15084498e+02
877             	3.15082912e+02
878             	3.15081054e+02
879             	3.15079305e+02
880             	3.15077982e+02
881             	3.15077024e+02
882             	3.15076115e+02
883             	3.15075205e+02
884             	3.15074678e+02
885             	3.15074526e+02
886             	3.15074528e+02
887             	3.15074630e+02
888             	3.15074696e+02
889             	3.15074722e+02
890             	3.15074687e+02
891             	3.15074642e+02
892             	3.15074690e+02
893             	3.15075060e+02
894             	3.15075750e+02
895             	3.15076290e+02
896             	3.15076852e+02
897             	3.15078134e+02
898             	3.15080198e+02
899             	3.15081705e+02
900             	3.15082992e+02
901             	3.15084420e+02
902             	3.15085480e+02
903             	3.15086253e+02
904             	3.15087032e+02
905             	3.15087758e+02
906             	3.15088180e+02
907             	3.15088540e+02
908             	3.15089082e+02
909             	3.15089707e+02
910             	3.15090294e+02
911             	3.15090598e+02
912             	3.15090609e+02
913             	3.15090461e+02
914             	3.15090357e+02
915             	3.15090221e+02
916             	3.15089977e+02
917             	3.15089825e+02
918             	3.15089765e+02
919             	3.15089653e+02
920             	3.15089573e+02
921             	3.15089527e+02
922             	3.15089465e+02
923             	3.15089214e+02
924             	3.15088714e+02
925             	3.15087744e+02
926             	3.15086323e+02
927             	3.15085118e+02
928             	3.15084198e+02
929             	3.15083437e+02
930             	3.15082811e+02
931             	3.15082203e+02
932             	3.15081538e+02
933             	3.15080644e+02