# Region        : cellZone component_2
# Cells         : 35
# Volume        : 6.21969456e-02
# Time          	volAverage(T)
1               	3.01727438e+02
2               	3.03405270e+02
3               	3.04799511e+02
4               	3.06027825e+02
5               	3.07197130e+02
6               	3.08311093e+02
7               	3.09372303e+02
8               	3.10379377e+02
9               	3.11365127e+02
10              	3.12302521e+02
11              	3.13172403e+02
12              	3.13942170e+02
13              	3.14660312e+02
14              	3.15246498e+02
15              	3.15822830e+02
16              	3.16299903e+02
17              	3.16774066e+02
18              	3.17258715e+02
19              	3.17739696e+02
20              	3.18296197e+02
21              	3.18903741e+02
22              	3.19583217e+02
23              	3.20216363e+02
24              	3.20821522e+02
25              	3.21263593e+02
26              	3.21764298e+02
27              	3.22215056e+02
28              	3.22588730e+02
29              	3.22892528e+02
30              	3.23161832e+02
31              	3.23322151e+02
32              	3.23368604e+02
33              	3.23396295e+02
34              	3.23389837e+02
35              	3.23481596e+02
36              	3.23583330e+02
37              	3.23652078e+02
38              	3.23783853e+02
39              	3.23951196e+02
40              	3.24137124e+02
41              	3.24292788e+02
42              	3.24308562e+02
43              	3.24321844e+02
44              	3.24400959e+02
45              	3.24439814e+02
46              	3.24436422e+02
47              	3.24339526e+02
48              	3.24292500e+02
49              	3.24240252e+02
50              	3.24246252e+02
51              	3.24325133e+02
52              	3.24326441e+02
53              	3.24288900e+02
54              	3.24219490e+02
55              	3.24174426e+02
56              	3.24227613e+02
57              	3.24261295e+02
58              	3.24276276e+02
59              	3.24076588e+02
60              	3.23826361e+02
61              	3.23575757e+02
62              	3.23418320e+02
63              	3.23249630e+02
64              	3.23080017e+02
65              	3.22920234e+02
66              	3.22780398e+02
67              	3.22649333e+02
68              	3.22527387e+02
69              	3.22422605e+02
70              	3.22344474e+02
71              	3.22272958e+02
72              	3.22206765e+02
73              	3.22146593e+02
74              	3.22089235e+02
75              	3.22040209e+02
76              	3.21986396e+02
77              	3.21946490e+02
78              	3.21910782e+02
79              	3.21875955e+02
80              	3.21844464e+02
81              	3.21818933e+02
82              	3.21783412e+02
83              	3.21755107e+02
84              	3.21723073e+02
85              	3.21701453e+02
86              	3.21682202e+02
87              	3.21662423e+02
88              	3.21652510e+02
89              	3.21650895e+02
90              	3.21644902e+02
91              	3.21640160e+02
92              	3.21624810e+02
93              	3.21596787e+02
94              	3.21569139e+02
95              	3.21550285e+02
96              	3.21523820e+02
97              	3.21504094e+02
98              	3.21492849e+02
99              	3.21483017e+02
100             	3.21477352e+02
101             	3.21470509e+02
102             	3.21473816e+02
103             	3.21476454e+02
104             	3.21465932e+02
105             	3.21450254e+02
106             	3.21434340e+02
107             	3.21417465e+02
108             	3.21407939e+02
109             	3.21408617e+02
110             	3.21419424e+02
111             	3.21419114e+02
112             	3.21425134e+02
113             	3.21418413e+02
114             	3.21408627e+02
115             	3.21402113e+02
116             	3.21397763e+02
117             	3.21388736e+02
118             	3.21373174e+02
119             	3.21353809e+02
120             	3.21344018e+02
121             	3.21332682e+02
122             	3.21332562e+02
123             	3.21334369e+02
124             	3.21336325e+02
125             	3.21336283e+02
126             	3.21336456e+02
127             	3.21333743e+02
128             	3.21323690e+02
129             	3.21320116e+02
130             	3.21320358e+02
131             	3.21322482e+02
132             	3.21323249e+02
133             	3.21320564e+02
134             	3.21316341e+02
135             	3.21312911e+02
136             	3.21309241e+02
137             	3.21307472e+02
138             	3.21307377e+02
139             	3.21306892e+02
140             	3.21306002e+02
141             	3.21303024e+02
142             	3.21297850e+02
143             	3.21292397e+02
144             	3.21288537e+02
145             	3.21287975e+02
146             	3.21290325e+02
147             	3.21293284e+02
148             	3.21296750e+02
149             	3.21298591e+02
150             	3.21301780e+02
151             	3.21305359e+02
152             	3.21308208e+02
153             	3.21309806e+02
154             	3.21310361e+02
155             	3.21309999e+02
156             	3.21308859e+02
157             	3.21307070e+02
158             	3.21304660e+02
159             	3.21301580e+02
160             	3.21297673e+02
161             	3.21292412e+02
162             	3.21287169e+02
163             	3.21283587e+02
164             	3.21283385e+02
165             	3.21282589e+02
166             	3.21281929e+02
167             	3.21281686e+02
168             	3.21282295e+02
169             	3.21283960e+02
170             	3.21286291e+02
171             	3.21288825e+02
172             	3.21292026e+02
173             	3.21296958e+02
174             	3.21302567e+02
175             	3.21309162e+02
176             	3.21316381e+02
177             	3.21323714e+02
178             	3.21330640e+02
179             	3.21337087e+02
180             	3.21342209e+02
181             	3.21344748e+02
182             	3.21344714e+02
183             	3.21343983e+02
184             	3.21345524e+02
185             	3.21347440e+02
186             	3.21347440e+02
187             	3.21346330e+02
188             	3.21346523e+02
189             	3.21345930e+02
190             	3.21345224e+02
191             	3.21344900e+02
192             	3.21345164e+02
193             	3.21346235e+02
194             	3.21347775e+02
195             	3.21349187e+02
196             	3.21350822e+02
197             	3.21353758e+02
198             	3.21357184e+02
199             	3.21359083e+02
200             	3.21362124e+02
201             	3.21367112e+02
202             	3.21370824e+02
203             	3.21373516e+02
204             	3.21375439e+02
205             	3.21376799e+02
206             	3.21377567e+02
207             	3.21377223e+02
208             	3.21375870e+02
209             	3.21374588e+02
210             	3.21373837e+02
211             	3.21373866e+02
212             	3.21375229e+02
213             	3.21378043e+02
214             	3.21381685e+02
215             	3.21384676e+02
216             	3.21387457e+02
217             	3.21390487e+02
218             	3.21394010e+02
219             	3.21397918e+02
220             	3.21401934e+02
221             	3.21403898e+02
222             	3.21406711e+02
223             	3.21411095e+02
224             	3.21415861e+02
225             	3.21420504e+02
226             	3.21424707e+02
227             	3.21428242e+02
228             	3.21431208e+02
229             	3.21433681e+02
230             	3.21435492e+02
231             	3.21436095e+02
232             	3.21435938e+02
233             	3.21435073e+02
234             	3.21435901e+02
235             	3.21435049e+02
236             	3.21434439e+02
237             	3.21434257e+02
238             	3.21434491e+02
239             	3.21435201e+02
240             	3.21436447e+02
241             	3.21438512e+02
242             	3.21439765e+02
243             	3.21441271e+02
244             	3.21443012e+02
245             	3.21444253e+02
246             	3.21444805e+02
247             	3.21445470e+02
248             	3.21445959e+02
249             	3.21446098e+02
250             	3.21445736e+02
251             	3.21444804e+02
252             	3.21443677e+02
253             	3.21443081e+02
254             	3.21443302e+02
255             	3.21442878e+02
256             	3.21442099e+02
257             	3.21441272e+02
258             	3.21440587e+02
259             	3.21440267e+02
260             	3.21440266e+02
261             	3.21440700e+02
262             	3.21441577e+02
263             	3.21443004e+02
264             	3.21445010e+02
265             	3.21447551e+02
266             	3.21450683e+02
267             	3.21454864e+02
268             	3.21458119e+02
269             	3.21461548e+02
270             	3.21464539e+02
271             	3.21466686e+02
272             	3.21468793e+02
273             	3.21469942e+02
274             	3.21471092e+02
275             	3.21472421e+02
276             	3.21475731e+02
277             	3.21477196e+02
278             	3.21477481e+02
279             	3.21477147e+02
280             	3.21476494e+02
281             	3.21475714e+02
282             	3.21475014e+02
283             	3.21474508e+02
284             	3.21474206e+02
285             	3.21474178e+02
286             	3.21474490e+02
287             	3.21475137e+02
288             	3.21476127e+02
289             	3.21477303e+02
290             	3.21477291e+02
291             	3.21477981e+02
292             	3.21478912e+02
293             	3.21480260e+02
294             	3.21481478e+02
295             	3.21482472e+02
296             	3.21483134e+02
297             	3.21483434e+02
298             	3.21483371e+02
299             	3.21483045e+02
300             	3.21482598e+02
301             	3.21482087e+02
302             	3.21481555e+02
303             	3.21481004e+02
304             	3.21480485e+02
305             	3.21480003e+02
306             	3.21479496e+02
307             	3.21478922e+02
308             	3.21478635e+02
309             	3.21478979e+02
310             	3.21479478e+02
311             	3.21480255e+02
312             	3.21481395e+02
313             	3.21482937e+02
314             	3.21484546e+02
315             	3.21486262e+02
316             	3.21488145e+02
317             	3.21490255e+02
318             	3.21492467e+02
319             	3.21494387e+02
320             	3.21496036e+02
321             	3.21497907e+02
322             	3.21499831e+02
323             	3.21501649e+02
324             	3.21503334e+02
325             	3.21504895e+02
326             	3.21506359e+02
327             	3.21507509e+02
328             	3.21508354e+02
329             	3.21509310e+02
330             	3.21510007e+02
331             	3.21511306e+02
332             	3.21512241e+02
333             	3.21513014e+02
334             	3.21513150e+02
335             	3.21512095e+02
336             	3.21511963e+02
337             	3.21512367e+02
338             	3.21512909e+02
339             	3.21513430e+02
340             	3.21513821e+02
341             	3.21513994e+02
342             	3.21513893e+02
343             	3.21513526e+02
344             	3.21512932e+02
345             	3.21512204e+02
346             	3.21511471e+02
347             	3.21510804e+02
348             	3.21510300e+02
349             	3.21510062e+02
350             	3.21510187e+02
351             	3.21510723e+02
352             	3.21511673e+02
353             	3.21513006e+02
354             	3.21514688e+02
355             	3.21516633e+02
356             	3.21518738e+02
357             	3.21520910e+02
358             	3.21523070e+02
359             	3.21525130e+02
360             	3.21527013e+02
361             	3.21528652e+02
362             	3.21530002e+02
363             	3.21531051e+02
364             	3.21531485e+02
365             	3.21531778e+02
366             	3.21531877e+02
367             	3.21531738e+02
368             	3.21531401e+02
369             	3.21530991e+02
370             	3.21530576e+02
371             	3.21530031e+02
372             	3.21529426e+02
373             	3.21528873e+02
374             	3.21528442e+02
375             	3.21528198e+02
376             	3.21528143e+02
377             	3.21528275e+02
378             	3.21528754e+02
379             	3.21529092e+02
380             	3.21529531e+02
381             	3.21530010e+02
382             	3.21530490e+02
383             	3.21530934e+02
384             	3.21531351e+02
385             	3.21531723e+02
386             	3.21532035e+02
387             	3.21532269e+02
388             	3.21532424e+02
389             	3.21532521e+02
390             	3.21532622e+02
391             	3.21532725e+02
392             	3.21532975e+02
393             	3.21533711e+02
394             	3.21533864e+02
395             	3.21533331e+02
396             	3.21532974e+02
397             	3.21532468e+02
398             	3.21531783e+02
399             	3.21531569e+02
400             	3.21531307e+02
401             	3.21532684e+02
402             	3.21533537e+02
403             	3.21534681e+02
404             	3.21535871e+02
405             	3.21536626e+02
406             	3.21536900e+02
407             	3.21537033e+02
408             	3.21537226e+02
409             	3.21537152e+02
410             	3.21537067e+02
411             	3.21537571e+02
412             	3.21538498e+02
413             	3.21539708e+02
414             	3.21541080e+02
415             	3.21542503e+02
416             	3.21543817e+02
417             	3.21544913e+02
418             	3.21545799e+02
419             	3.21546502e+02
420             	3.21547113e+02
421             	3.21548071e+02
422             	3.21549105e+02
423             	3.21549721e+02
424             	3.21548976e+02
425             	3.21547098e+02
426             	3.21546205e+02
427             	3.21545820e+02
428             	3.21545623e+02
429             	3.21545533e+02
430             	3.21545514e+02
431             	3.21545610e+02
432             	3.21545661e+02
433             	3.21545560e+02
434             	3.21545391e+02
435             	3.21544736e+02
436             	3.21543704e+02
437             	3.21541916e+02
438             	3.21540950e+02
439             	3.21540686e+02
440             	3.21540963e+02
441             	3.21541684e+02
442             	3.21542934e+02
443             	3.21544544e+02
444             	3.21546722e+02
445             	3.21549074e+02
446             	3.21550859e+02
447             	3.21552400e+02
448             	3.21553875e+02
449             	3.21555362e+02
450             	3.21556964e+02
451             	3.21558714e+02
452             	3.21560602e+02
453             	3.21562509e+02
454             	3.21564283e+02
455             	3.21565478e+02
456             	3.21566731e+02
457             	3.21567839e+02
458             	3.21568549e+02
459             	3.21568765e+02
460             	3.21568467e+02
461             	3.21567684e+02
462             	3.21566438e+02
463             	3.21564813e+02
464             	3.21562862e+02
465             	3.21560747e+02
466             	3.21558616e+02
467             	3.21556884e+02
468             	3.21554996e+02
469             	3.21553095e+02
470             	3.21551252e+02
471             	3.21549422e+02
472             	3.21547624e+02
473             	3.21546018e+02
474             	3.21544810e+02
475             	3.21543932e+02
476             	3.21543310e+02
477             	3.21542911e+02
478             	3.21542644e+02
479             	3.21542432e+02
480             	3.21542229e+02
481             	3.21542015e+02
482             	3.21541803e+02
483             	3.21541624e+02
484             	3.21541520e+02
485             	3.21541584e+02
486             	3.21541871e+02
487             	3.21542734e+02
488             	3.21543561e+02
489             	3.21544483e+02
490             	3.21545611e+02
491             	3.21546974e+02
492             	3.21548561e+02
493             	3.21550363e+02
494             	3.21552345e+02
495             	3.21554256e+02
496             	3.21555992e+02
497             	3.21557671e+02
498             	3.21559187e+02
499             	3.21560447e+02
500             	3.21561376e+02
501             	3.21561860e+02
502             	3.21561768e+02
503             	3.21561193e+02
504             	3.21560430e+02
505             	3.21559399e+02
506             	3.21558746e+02
507             	3.21557750e+02
508             	3.21556724e+02
509             	3.21555287e+02
510             	3.21553681e+02
511             	3.21552012e+02
512             	3.21550281e+02
513             	3.21548473e+02
514             	3.21546749e+02
515             	3.21545304e+02
516             	3.21544129e+02
517             	3.21543201e+02
518             	3.21542485e+02
519             	3.21541915e+02
520             	3.21541429e+02
521             	3.21540979e+02
522             	3.21540556e+02
523             	3.21540161e+02
524             	3.21539874e+02
525             	3.21540287e+02
526             	3.21541068e+02
527             	3.21541555e+02
528             	3.21542117e+02
529             	3.21542825e+02
530             	3.21543256e+02
531             	3.21543414e+02
532             	3.21544357e+02
533             	3.21545722e+02
534             	3.21547279e+02
535             	3.21548876e+02
536             	3.21550749e+02
537             	3.21552364e+02
538             	3.21553767e+02
539             	3.21555126e+02
540             	3.21556798e+02
541             	3.21558118e+02
542             	3.21558964e+02
543             	3.21559593e+02
544             	3.21560163e+02
545             	3.21560789e+02
546             	3.21561470e+02
547             	3.21562072e+02
548             	3.21561843e+02
549             	3.21560720e+02
550             	3.21560282e+02
551             	3.21560038e+02
552             	3.21559648e+02
553             	3.21559827e+02
554             	3.21559681e+02
555             	3.21559317e+02
556             	3.21558924e+02
557             	3.21558426e+02
558             	3.21557736e+02
559             	3.21556860e+02
560             	3.21555953e+02
561             	3.21555177e+02
562             	3.21554639e+02
563             	3.21554369e+02
564             	3.21554370e+02
565             	3.21554568e+02
566             	3.21554702e+02
567             	3.21554606e+02
568             	3.21555043e+02
569             	3.21555732e+02
570             	3.21556452e+02
571             	3.21557138e+02
572             	3.21557825e+02
573             	3.21558504e+02
574             	3.21558940e+02
575             	3.21559114e+02
576             	3.21559040e+02
577             	3.21559037e+02
578             	3.21558977e+02
579             	3.21559041e+02
580             	3.21559304e+02
581             	3.21559815e+02
582             	3.21560587e+02
583             	3.21561601e+02
584             	3.21562814e+02
585             	3.21564137e+02
586             	3.21565453e+02
587             	3.21566656e+02
588             	3.21567111e+02
589             	3.21567517e+02
590             	3.21567735e+02
591             	3.21567592e+02
592             	3.21567025e+02
593             	3.21566047e+02
594             	3.21564736e+02
595             	3.21563202e+02
596             	3.21561735e+02
597             	3.21560144e+02
598             	3.21558378e+02
599             	3.21556496e+02
600             	3.21554619e+02
601             	3.21552806e+02
602             	3.21551066e+02
603             	3.21549472e+02
604             	3.21548006e+02
605             	3.21546677e+02
606             	3.21545706e+02
607             	3.21545317e+02
608             	3.21545382e+02
609             	3.21546017e+02
610             	3.21546981e+02
611             	3.21547926e+02
612             	3.21548792e+02
613             	3.21549614e+02
614             	3.21550437e+02
615             	3.21551304e+02
616             	3.21552348e+02
617             	3.21553604e+02
618             	3.21555033e+02
619             	3.21556610e+02
620             	3.21558333e+02
621             	3.21560151e+02
622             	3.21561989e+02
623             	3.21563796e+02
624             	3.21565551e+02
625             	3.21566956e+02
626             	3.21567545e+02
627             	3.21567974e+02
628             	3.21568172e+02
629             	3.21567923e+02
630             	3.21567074e+02
631             	3.21565834e+02
632             	3.21564364e+02
633             	3.21562868e+02
634             	3.21561313e+02
635             	3.21560390e+02
636             	3.21559726e+02
637             	3.21558336e+02
638             	3.21556574e+02
639             	3.21554634e+02
640             	3.21552699e+02
641             	3.21550893e+02
642             	3.21549289e+02
643             	3.21547987e+02
644             	3.21547036e+02
645             	3.21546402e+02
646             	3.21546030e+02
647             	3.21545822e+02
648             	3.21545729e+02
649             	3.21545782e+02
650             	3.21545931e+02
651             	3.21546147e+02
652             	3.21546428e+02
653             	3.21546776e+02
654             	3.21548106e+02
655             	3.21550047e+02
656             	3.21551556e+02
657             	3.21552494e+02
658             	3.21553050e+02
659             	3.21553136e+02
660             	3.21553826e+02
661             	3.21554801e+02
662             	3.21555831e+02
663             	3.21556790e+02
664             	3.21557577e+02
665             	3.21558207e+02
666             	3.21558649e+02
667             	3.21560419e+02
668             	3.21561295e+02
669             	3.21561626e+02
670             	3.21561845e+02
671             	3.21562067e+02
672             	3.21562151e+02
673             	3.21561481e+02
674             	3.21561033e+02
675             	3.21560760e+02
676             	3.21560449e+02
677             	3.21560625e+02
678             	3.21561445e+02
679             	3.21562634e+02
680             	3.21563932e+02
681             	3.21565730e+02
682             	3.21567523e+02
683             	3.21568235e+02
684             	3.21568596e+02
685             	3.21567111e+02
686             	3.21564774e+02
687             	3.21563555e+02
688             	3.21563075e+02
689             	3.21563093e+02
690             	3.21563728e+02
691             	3.21565085e+02
692             	3.21567000e+02
693             	3.21567570e+02
694             	3.21567353e+02
695             	3.21566673e+02
696             	3.21565718e+02
697             	3.21564615e+02
698             	3.21563434e+02
699             	3.21562442e+02
700             	3.21561889e+02
701             	3.21561602e+02
702             	3.21561768e+02
703             	3.21562486e+02
704             	3.21563355e+02
705             	3.21564169e+02
706             	3.21564819e+02
707             	3.21565166e+02
708             	3.21565105e+02
709             	3.21565110e+02
710             	3.21564581e+02
711             	3.21563723e+02
712             	3.21563201e+02
713             	3.21563373e+02
714             	3.21563222e+02
715             	3.21563064e+02
716             	3.21563176e+02
717             	3.21563714e+02
718             	3.21564573e+02
719             	3.21565490e+02
720             	3.21566389e+02
721             	3.21567075e+02
722             	3.21567175e+02
723             	3.21567151e+02
724             	3.21567203e+02
725             	3.21567133e+02
726             	3.21567172e+02
727             	3.21567483e+02
728             	3.21567649e+02
729             	3.21565660e+02
730             	3.21563917e+02
731             	3.21562225e+02
732             	3.21560318e+02
733             	3.21558082e+02
734             	3.21555372e+02
735             	3.21552003e+02
736             	3.21549806e+02
737             	3.21548462e+02
738             	3.21547794e+02
739             	3.21546702e+02
740             	3.21545660e+02
741             	3.21545013e+02
742             	3.21544955e+02
743             	3.21545452e+02
744             	3.21546515e+02
745             	3.21548295e+02
746             	3.21550332e+02
747             	3.21552645e+02
748             	3.21554263e+02
749             	3.21555817e+02
750             	3.21557533e+02
751             	3.21559806e+02
752             	3.21562130e+02
753             	3.21564057e+02
754             	3.21565717e+02
755             	3.21567131e+02
756             	3.21567968e+02
757             	3.21568395e+02
758             	3.21567862e+02
759             	3.21566724e+02
760             	3.21565128e+02
761             	3.21563104e+02
762             	3.21560521e+02
763             	3.21556911e+02
764             	3.21554190e+02
765             	3.21551994e+02
766             	3.21550650e+02
767             	3.21550978e+02
768             	3.21552688e+02
769             	3.21553811e+02
770             	3.21553802e+02
771             	3.21553543e+02
772             	3.21553099e+02
773             	3.21552328e+02
774             	3.21551712e+02
775             	3.21550673e+02
776             	3.21550711e+02
777             	3.21551402e+02
778             	3.21552205e+02
779             	3.21553624e+02
780             	3.21556385e+02
781             	3.21560656e+02
782             	3.21563602e+02
783             	3.21565048e+02
784             	3.21564800e+02
785             	3.21562603e+02
786             	3.21559067e+02
787             	3.21555472e+02
788             	3.21552933e+02
789             	3.21553619e+02
790             	3.21556313e+02
791             	3.21559327e+02
792             	3.21560333e+02
793             	3.21560214e+02
794             	3.21558834e+02
795             	3.21557816e+02
796             	3.21557110e+02
797             	3.21556613e+02
798             	3.21556539e+02
799             	3.21556840e+02
800             	3.21557402e+02
801             	3.21558362e+02
802             	3.21559235e+02
803             	3.21559754e+02
804             	3.21559830e+02
805             	3.21560018e+02
806             	3.21560165e+02
807             	3.21560474e+02
808             	3.21560537e+02
809             	3.21559660e+02
810             	3.21558114e+02
811             	3.21556099e+02
812             	3.21553809e+02
813             	3.21551450e+02
814             	3.21549242e+02
815             	3.21547398e+02
816             	3.21545994e+02
817             	3.21545037e+02
818             	3.21544400e+02
819             	3.21543329e+02
820             	3.21542671e+02
821             	3.21542274e+02
822             	3.21542019e+02
823             	3.21543263e+02
824             	3.21543662e+02
825             	3.21543671e+02
826             	3.21543555e+02
827             	3.21543526e+02
828             	3.21543654e+02
829             	3.21543993e+02
830             	3.21544355e+02
831             	3.21545149e+02
832             	3.21546378e+02
833             	3.21547891e+02
834             	3.21549584e+02
835             	3.21551362e+02
836             	3.21553072e+02
837             	3.21554588e+02
838             	3.21555826e+02
839             	3.21556797e+02
840             	3.21557509e+02
841             	3.21557989e+02
842             	3.21558273e+02
843             	3.21558390e+02
844             	3.21558378e+02
845             	3.21558281e+02
846             	3.21558168e+02
847             	3.21558282e+02
848             	3.21558457e+02
849             	3.21558661e+02
850             	3.21558877e+02
851             	3.21559139e+02
852             	3.21559449e+02
853             	3.21559816e+02
854             	3.21560018e+02
855             	3.21560333e+02
856             	3.21560653e+02
857             	3.21560896e+02
858             	3.21560970e+02
859             	3.21560754e+02
860             	3.21560416e+02
861             	3.21559981e+02
862             	3.21559498e+02
863             	3.21558549e+02
864             	3.21557587e+02
865             	3.21556554e+02
866             	3.21555414e+02
867             	3.21554177e+02
868             	3.21552894e+02
869             	3.21551642e+02
870             	3.21550490e+02
871             	3.21549665e+02
872             	3.21548971e+02
873             	3.21548690e+02
874             	3.21548650e+02
875             	3.21549082e+02
876             	3.21549789e+02
877             	3.21550796e+02
878             	3.21552132e+02
879             	3.21553807e+02
880             	3.21555706e+02
881             	3.21557540e+02
882             	3.21559277e+02
883             	3.21560876e+02
884             	3.21562248e+02
885             	3.21563331e+02
886             	3.21564101e+02
887             	3.21564542e+02
888             	3.21564678e+02
889             	3.21564539e+02
890             	3.21564166e+02
891             	3.21563602e+02
892             	3.21562933e+02
893             	3.21562195e+02
894             	3.21561450e+02
895             	3.21560726e+02
896             	3.21560033e+02
897             	3.21559354e+02
898             	3.21558654e+02
899             	3.21557860e+02
900             	3.21557068e+02
901             	3.21556152e+02
902             	3.21555056e+02
903             	3.21554402e+02
904             	3.21553994e+02
905             	3.21553837e+02
906             	3.21554003e+02
907             	3.21554018e+02
908             	3.21553949e+02
909             	3.21553807e+02
910             	3.21553434e+02
911             	3.21552992e+02
912             	3.21552569e+02
913             	3.21552290e+02
914             	3.21552148e+02
915             	3.21552138e+02
916             	3.21552257e+02
917             	3.21552442e+02
918             	3.21552651e+02
919             	3.21553347e+02
920             	3.21554830e+02
921             	3.21555999e+02
922             	3.21557030e+02
923             	3.21558074e+02
924             	3.21559151e+02
925             	3.21560229e+02
926             	3.21561298e+02
927             	3.21562390e+02
928             	3.21563486e+02
929             	3.21564556e+02
930             	3.21565565e+02
931             	3.21566476e+02
932             	3.21567279e+02
933             	3.21567919e+02