# Region        : cellZone pcb
# Cells         : 801
# Volume        : 1.55952862e+00
# Time          	volAverage(T)
1               	3.00011019e+02
2               	3.00031960e+02
3               	3.00061057e+02
4               	3.00097522e+02
5               	3.00140552e+02
6               	3.00189797e+02
7               	3.00245161e+02
8               	3.00306322e+02
9               	3.00372951e+02
10              	3.00444653e+02
11              	3.00520986e+02
12              	3.00601604e+02
13              	3.00686181e+02
14              	3.00774192e+02
15              	3.00866800e+02
16              	3.00963167e+02
17              	3.01062525e+02
18              	3.01164884e+02
19              	3.01270386e+02
20              	3.01377908e+02
21              	3.01487500e+02
22              	3.01598756e+02
23              	3.01712510e+02
24              	3.01828879e+02
25              	3.01948132e+02
26              	3.02067161e+02
27              	3.02186867e+02
28              	3.02307893e+02
29              	3.02431673e+02
30              	3.02556832e+02
31              	3.02683225e+02
32              	3.02809821e+02
33              	3.02940708e+02
34              	3.03070574e+02
35              	3.03200231e+02
36              	3.03330682e+02
37              	3.03463333e+02
38              	3.03595472e+02
39              	3.03727966e+02
40              	3.03860827e+02
41              	3.03994315e+02
42              	3.04127161e+02
43              	3.04259857e+02
44              	3.04392685e+02
45              	3.04524922e+02
46              	3.04655830e+02
47              	3.04786251e+02
48              	3.04918242e+02
49              	3.05050600e+02
50              	3.05182597e+02
51              	3.05315860e+02
52              	3.05448759e+02
53              	3.05581604e+02
54              	3.05713606e+02
55              	3.05844764e+02
56              	3.05976301e+02
57              	3.06108216e+02
58              	3.06239830e+02
59              	3.06369863e+02
60              	3.06499335e+02
61              	3.06628265e+02
62              	3.06755848e+02
63              	3.06882524e+02
64              	3.07010770e+02
65              	3.07138976e+02
66              	3.07266106e+02
67              	3.07393201e+02
68              	3.07519653e+02
69              	3.07640176e+02
70              	3.07761530e+02
71              	3.07884810e+02
72              	3.08008235e+02
73              	3.08130342e+02
74              	3.08250130e+02
75              	3.08367405e+02
76              	3.08484329e+02
77              	3.08599126e+02
78              	3.08712516e+02
79              	3.08826397e+02
80              	3.08940867e+02
81              	3.09054925e+02
82              	3.09169486e+02
83              	3.09284367e+02
84              	3.09399874e+02
85              	3.09514233e+02
86              	3.09627884e+02
87              	3.09740594e+02
88              	3.09853128e+02
89              	3.09966182e+02
90              	3.10078999e+02
91              	3.10191202e+02
92              	3.10301954e+02
93              	3.10411335e+02
94              	3.10519717e+02
95              	3.10626180e+02
96              	3.10731180e+02
97              	3.10835126e+02
98              	3.10938556e+02
99              	3.11042896e+02
100             	3.11147905e+02
101             	3.11253949e+02
102             	3.11360529e+02
103             	3.11464764e+02
104             	3.11569198e+02
105             	3.11671237e+02
106             	3.11773238e+02
107             	3.11876204e+02
108             	3.11979080e+02
109             	3.12081176e+02
110             	3.12183729e+02
111             	3.12284164e+02
112             	3.12384904e+02
113             	3.12484728e+02
114             	3.12582364e+02
115             	3.12677947e+02
116             	3.12771816e+02
117             	3.12865085e+02
118             	3.12958376e+02
119             	3.13050827e+02
120             	3.13140063e+02
121             	3.13229791e+02
122             	3.13318586e+02
123             	3.13407407e+02
124             	3.13496731e+02
125             	3.13586828e+02
126             	3.13677897e+02
127             	3.13765639e+02
128             	3.13852850e+02
129             	3.13938988e+02
130             	3.14025212e+02
131             	3.14110065e+02
132             	3.14196385e+02
133             	3.14280106e+02
134             	3.14363527e+02
135             	3.14446005e+02
136             	3.14528868e+02
137             	3.14611200e+02
138             	3.14691744e+02
139             	3.14771555e+02
140             	3.14850391e+02
141             	3.14927409e+02
142             	3.15003639e+02
143             	3.15081450e+02
144             	3.15157148e+02
145             	3.15232411e+02
146             	3.15306732e+02
147             	3.15382204e+02
148             	3.15457870e+02
149             	3.15534090e+02
150             	3.15612120e+02
151             	3.15688659e+02
152             	3.15761916e+02
153             	3.15833283e+02
154             	3.15905359e+02
155             	3.15976156e+02
156             	3.16044607e+02
157             	3.16113530e+02
158             	3.16182871e+02
159             	3.16252299e+02
160             	3.16320081e+02
161             	3.16385002e+02
162             	3.16448806e+02
163             	3.16511305e+02
164             	3.16573341e+02
165             	3.16635056e+02
166             	3.16697340e+02
167             	3.16758674e+02
168             	3.16820561e+02
169             	3.16882319e+02
170             	3.16944843e+02
171             	3.17008308e+02
172             	3.17071240e+02
173             	3.17133309e+02
174             	3.17194112e+02
175             	3.17254160e+02
176             	3.17313609e+02
177             	3.17373349e+02
178             	3.17433255e+02
179             	3.17492505e+02
180             	3.17551566e+02
181             	3.17610221e+02
182             	3.17667389e+02
183             	3.17722925e+02
184             	3.17776277e+02
185             	3.17828546e+02
186             	3.17880701e+02
187             	3.17932256e+02
188             	3.17983465e+02
189             	3.18035513e+02
190             	3.18086475e+02
191             	3.18138207e+02
192             	3.18190639e+02
193             	3.18242652e+02
194             	3.18294678e+02
195             	3.18345085e+02
196             	3.18396047e+02
197             	3.18446106e+02
198             	3.18496181e+02
199             	3.18544607e+02
200             	3.18593303e+02
201             	3.18642408e+02
202             	3.18691693e+02
203             	3.18740543e+02
204             	3.18788128e+02
205             	3.18835205e+02
206             	3.18881859e+02
207             	3.18929420e+02
208             	3.18975709e+02
209             	3.19020993e+02
210             	3.19066120e+02
211             	3.19111462e+02
212             	3.19157723e+02
213             	3.19204737e+02
214             	3.19252110e+02
215             	3.19299704e+02
216             	3.19345623e+02
217             	3.19392023e+02
218             	3.19438165e+02
219             	3.19484014e+02
220             	3.19529845e+02
221             	3.19574845e+02
222             	3.19619135e+02
223             	3.19662548e+02
224             	3.19705644e+02
225             	3.19748169e+02
226             	3.19791586e+02
227             	3.19836125e+02
228             	3.19879980e+02
229             	3.19922846e+02
230             	3.19966354e+02
231             	3.20008759e+02
232             	3.20051872e+02
233             	3.20093639e+02
234             	3.20135117e+02
235             	3.20177058e+02
236             	3.20219178e+02
237             	3.20261344e+02
238             	3.20303387e+02
239             	3.20344929e+02
240             	3.20386520e+02
241             	3.20427221e+02
242             	3.20467053e+02
243             	3.20505428e+02
244             	3.20543159e+02
245             	3.20580956e+02
246             	3.20618387e+02
247             	3.20655653e+02
248             	3.20692590e+02
249             	3.20728778e+02
250             	3.20764987e+02
251             	3.20800954e+02
252             	3.20837028e+02
253             	3.20873077e+02
254             	3.20908957e+02
255             	3.20944615e+02
256             	3.20979682e+02
257             	3.21014703e+02
258             	3.21049883e+02
259             	3.21084916e+02
260             	3.21120096e+02
261             	3.21154912e+02
262             	3.21189525e+02
263             	3.21223685e+02
264             	3.21257724e+02
265             	3.21291537e+02
266             	3.21324915e+02
267             	3.21358135e+02
268             	3.21390761e+02
269             	3.21422413e+02
270             	3.21454227e+02
271             	3.21485950e+02
272             	3.21517649e+02
273             	3.21549538e+02
274             	3.21581896e+02
275             	3.21614991e+02
276             	3.21647723e+02
277             	3.21679787e+02
278             	3.21712028e+02
279             	3.21743923e+02
280             	3.21775428e+02
281             	3.21806428e+02
282             	3.21837841e+02
283             	3.21868554e+02
284             	3.21898435e+02
285             	3.21927684e+02
286             	3.21956965e+02
287             	3.21985685e+02
288             	3.22014534e+02
289             	3.22043540e+02
290             	3.22072875e+02
291             	3.22101938e+02
292             	3.22130581e+02
293             	3.22158563e+02
294             	3.22185975e+02
295             	3.22213317e+02
296             	3.22240186e+02
297             	3.22266652e+02
298             	3.22293095e+02
299             	3.22319399e+02
300             	3.22345567e+02
301             	3.22371652e+02
302             	3.22397622e+02
303             	3.22423731e+02
304             	3.22449700e+02
305             	3.22475695e+02
306             	3.22501779e+02
307             	3.22527984e+02
308             	3.22553720e+02
309             	3.22579288e+02
310             	3.22604369e+02
311             	3.22628514e+02
312             	3.22652161e+02
313             	3.22675292e+02
314             	3.22698357e+02
315             	3.22721151e+02
316             	3.22744282e+02
317             	3.22767689e+02
318             	3.22791488e+02
319             	3.22815782e+02
320             	3.22840415e+02
321             	3.22865181e+02
322             	3.22888722e+02
323             	3.22911046e+02
324             	3.22932823e+02
325             	3.22954345e+02
326             	3.22975733e+02
327             	3.22997077e+02
328             	3.23018450e+02
329             	3.23040007e+02
330             	3.23061952e+02
331             	3.23083771e+02
332             	3.23105392e+02
333             	3.23126188e+02
334             	3.23146922e+02
335             	3.23167385e+02
336             	3.23187620e+02
337             	3.23207481e+02
338             	3.23227230e+02
339             	3.23247269e+02
340             	3.23266567e+02
341             	3.23285548e+02
342             	3.23304533e+02
343             	3.23323653e+02
344             	3.23342711e+02
345             	3.23361724e+02
346             	3.23380661e+02
347             	3.23399427e+02
348             	3.23418214e+02
349             	3.23436874e+02
350             	3.23455410e+02
351             	3.23473785e+02
352             	3.23492400e+02
353             	3.23510720e+02
354             	3.23529008e+02
355             	3.23547142e+02
356             	3.23565231e+02
357             	3.23583197e+02
358             	3.23601119e+02
359             	3.23619008e+02
360             	3.23637088e+02
361             	3.23654058e+02
362             	3.23671270e+02
363             	3.23687286e+02
364             	3.23703887e+02
365             	3.23719941e+02
366             	3.23735708e+02
367             	3.23751432e+02
368             	3.23767102e+02
369             	3.23782761e+02
370             	3.23798718e+02
371             	3.23814862e+02
372             	3.23830806e+02
373             	3.23846571e+02
374             	3.23862129e+02
375             	3.23877717e+02
376             	3.23893187e+02
377             	3.23908353e+02
378             	3.23923197e+02
379             	3.23937752e+02
380             	3.23952110e+02
381             	3.23966269e+02
382             	3.23980194e+02
383             	3.23993846e+02
384             	3.24007330e+02
385             	3.24020654e+02
386             	3.24033755e+02
387             	3.24046706e+02
388             	3.24059754e+02
389             	3.24072885e+02
390             	3.24086020e+02
391             	3.24099243e+02
392             	3.24112542e+02
393             	3.24125901e+02
394             	3.24139358e+02
395             	3.24152459e+02
396             	3.24165254e+02
397             	3.24177658e+02
398             	3.24189878e+02
399             	3.24202100e+02
400             	3.24214377e+02
401             	3.24226671e+02
402             	3.24239147e+02
403             	3.24251627e+02
404             	3.24264333e+02
405             	3.24277116e+02
406             	3.24289831e+02
407             	3.24302490e+02
408             	3.24315010e+02
409             	3.24327120e+02
410             	3.24338832e+02
411             	3.24350263e+02
412             	3.24361423e+02
413             	3.24372482e+02
414             	3.24383475e+02
415             	3.24394303e+02
416             	3.24405112e+02
417             	3.24415851e+02
418             	3.24426449e+02
419             	3.24436954e+02
420             	3.24447449e+02
421             	3.24457845e+02
422             	3.24468186e+02
423             	3.24478730e+02
424             	3.24489029e+02
425             	3.24499182e+02
426             	3.24509307e+02
427             	3.24519286e+02
428             	3.24529059e+02
429             	3.24538643e+02
430             	3.24548442e+02
431             	3.24558417e+02
432             	3.24568645e+02
433             	3.24578869e+02
434             	3.24588798e+02
435             	3.24598417e+02
436             	3.24607852e+02
437             	3.24617219e+02
438             	3.24626546e+02
439             	3.24635881e+02
440             	3.24645147e+02
441             	3.24654364e+02
442             	3.24663508e+02
443             	3.24672560e+02
444             	3.24681641e+02
445             	3.24690602e+02
446             	3.24699516e+02
447             	3.24708376e+02
448             	3.24717142e+02
449             	3.24725854e+02
450             	3.24734498e+02
451             	3.24743150e+02
452             	3.24751740e+02
453             	3.24760325e+02
454             	3.24768850e+02
455             	3.24777308e+02
456             	3.24785582e+02
457             	3.24793743e+02
458             	3.24801710e+02
459             	3.24809488e+02
460             	3.24817102e+02
461             	3.24824585e+02
462             	3.24831960e+02
463             	3.24839273e+02
464             	3.24846716e+02
465             	3.24854248e+02
466             	3.24861804e+02
467             	3.24869343e+02
468             	3.24876765e+02
469             	3.24884229e+02
470             	3.24891671e+02
471             	3.24899050e+02
472             	3.24906367e+02
473             	3.24913638e+02
474             	3.24920861e+02
475             	3.24928042e+02
476             	3.24935134e+02
477             	3.24942201e+02
478             	3.24949235e+02
479             	3.24956249e+02
480             	3.24963261e+02
481             	3.24970281e+02
482             	3.24977312e+02
483             	3.24984279e+02
484             	3.24991208e+02
485             	3.24998087e+02
486             	3.25004926e+02
487             	3.25011712e+02
488             	3.25018408e+02
489             	3.25024989e+02
490             	3.25031385e+02
491             	3.25037719e+02
492             	3.25043996e+02
493             	3.25050176e+02
494             	3.25056248e+02
495             	3.25062175e+02
496             	3.25067917e+02
497             	3.25073529e+02
498             	3.25079058e+02
499             	3.25084537e+02
500             	3.25090009e+02
501             	3.25095422e+02
502             	3.25100915e+02
503             	3.25106475e+02
504             	3.25112081e+02
505             	3.25117692e+02
506             	3.25123284e+02
507             	3.25128852e+02
508             	3.25134323e+02
509             	3.25139740e+02
510             	3.25145096e+02
511             	3.25150410e+02
512             	3.25155771e+02
513             	3.25161135e+02
514             	3.25166540e+02
515             	3.25172043e+02
516             	3.25177569e+02
517             	3.25183166e+02
518             	3.25188794e+02
519             	3.25194372e+02
520             	3.25199776e+02
521             	3.25205057e+02
522             	3.25210266e+02
523             	3.25215492e+02
524             	3.25220777e+02
525             	3.25226110e+02
526             	3.25231359e+02
527             	3.25236565e+02
528             	3.25241660e+02
529             	3.25246721e+02
530             	3.25251706e+02
531             	3.25256583e+02
532             	3.25261315e+02
533             	3.25265887e+02
534             	3.25270329e+02
535             	3.25274652e+02
536             	3.25278887e+02
537             	3.25283044e+02
538             	3.25287145e+02
539             	3.25291208e+02
540             	3.25295214e+02
541             	3.25299163e+02
542             	3.25303062e+02
543             	3.25306916e+02
544             	3.25310760e+02
545             	3.25314598e+02
546             	3.25318448e+02
547             	3.25322321e+02
548             	3.25326243e+02
549             	3.25330126e+02
550             	3.25333951e+02
551             	3.25337721e+02
552             	3.25341440e+02
553             	3.25345150e+02
554             	3.25348895e+02
555             	3.25352670e+02
556             	3.25356496e+02
557             	3.25360370e+02
558             	3.25364275e+02
559             	3.25368189e+02
560             	3.25372161e+02
561             	3.25376151e+02
562             	3.25380130e+02
563             	3.25384033e+02
564             	3.25387962e+02
565             	3.25391876e+02
566             	3.25395775e+02
567             	3.25399702e+02
568             	3.25403638e+02
569             	3.25407492e+02
570             	3.25411263e+02
571             	3.25414984e+02
572             	3.25418630e+02
573             	3.25422178e+02
574             	3.25425617e+02
575             	3.25428960e+02
576             	3.25432199e+02
577             	3.25435342e+02
578             	3.25438397e+02
579             	3.25441432e+02
580             	3.25444450e+02
581             	3.25447372e+02
582             	3.25450228e+02
583             	3.25453089e+02
584             	3.25455931e+02
585             	3.25458766e+02
586             	3.25461558e+02
587             	3.25464317e+02
588             	3.25467088e+02
589             	3.25469880e+02
590             	3.25472673e+02
591             	3.25475476e+02
592             	3.25478245e+02
593             	3.25481047e+02
594             	3.25483856e+02
595             	3.25486672e+02
596             	3.25489485e+02
597             	3.25492301e+02
598             	3.25495119e+02
599             	3.25497968e+02
600             	3.25500831e+02
601             	3.25503690e+02
602             	3.25506529e+02
603             	3.25509401e+02
604             	3.25512262e+02
605             	3.25515145e+02
606             	3.25518058e+02
607             	3.25520946e+02
608             	3.25523826e+02
609             	3.25526600e+02
610             	3.25529274e+02
611             	3.25531881e+02
612             	3.25534427e+02
613             	3.25536948e+02
614             	3.25539474e+02
615             	3.25541993e+02
616             	3.25544438e+02
617             	3.25546803e+02
618             	3.25549097e+02
619             	3.25551291e+02
620             	3.25553390e+02
621             	3.25555444e+02
622             	3.25557457e+02
623             	3.25559428e+02
624             	3.25561396e+02
625             	3.25563354e+02
626             	3.25565321e+02
627             	3.25567298e+02
628             	3.25569270e+02
629             	3.25571231e+02
630             	3.25573169e+02
631             	3.25575099e+02
632             	3.25577016e+02
633             	3.25578941e+02
634             	3.25580891e+02
635             	3.25582879e+02
636             	3.25584903e+02
637             	3.25586968e+02
638             	3.25589067e+02
639             	3.25591216e+02
640             	3.25593375e+02
641             	3.25595525e+02
642             	3.25597615e+02
643             	3.25599681e+02
644             	3.25601789e+02
645             	3.25603865e+02
646             	3.25605992e+02
647             	3.25608155e+02
648             	3.25610339e+02
649             	3.25612505e+02
650             	3.25614622e+02
651             	3.25616682e+02
652             	3.25618608e+02
653             	3.25620368e+02
654             	3.25621997e+02
655             	3.25623556e+02
656             	3.25625076e+02
657             	3.25626574e+02
658             	3.25628037e+02
659             	3.25629516e+02
660             	3.25631022e+02
661             	3.25632550e+02
662             	3.25634048e+02
663             	3.25635535e+02
664             	3.25636987e+02
665             	3.25638383e+02
666             	3.25639760e+02
667             	3.25641134e+02
668             	3.25642496e+02
669             	3.25643838e+02
670             	3.25645158e+02
671             	3.25646489e+02
672             	3.25647874e+02
673             	3.25649323e+02
674             	3.25650753e+02
675             	3.25652230e+02
676             	3.25653757e+02
677             	3.25655320e+02
678             	3.25656903e+02
679             	3.25658500e+02
680             	3.25660094e+02
681             	3.25661680e+02
682             	3.25663246e+02
683             	3.25664813e+02
684             	3.25666288e+02
685             	3.25667806e+02
686             	3.25669358e+02
687             	3.25671001e+02
688             	3.25672663e+02
689             	3.25674288e+02
690             	3.25675883e+02
691             	3.25677422e+02
692             	3.25678917e+02
693             	3.25680294e+02
694             	3.25681509e+02
695             	3.25682619e+02
696             	3.25683670e+02
697             	3.25684712e+02
698             	3.25685711e+02
699             	3.25686663e+02
700             	3.25687614e+02
701             	3.25688548e+02
702             	3.25689474e+02
703             	3.25690345e+02
704             	3.25691199e+02
705             	3.25692051e+02
706             	3.25692885e+02
707             	3.25693710e+02
708             	3.25694587e+02
709             	3.25695561e+02
710             	3.25696623e+02
711             	3.25697738e+02
712             	3.25698881e+02
713             	3.25700000e+02
714             	3.25701057e+02
715             	3.25702103e+02
716             	3.25703096e+02
717             	3.25704111e+02
718             	3.25705198e+02
719             	3.25706365e+02
720             	3.25707565e+02
721             	3.25708817e+02
722             	3.25710140e+02
723             	3.25711443e+02
724             	3.25712710e+02
725             	3.25713891e+02
726             	3.25715012e+02
727             	3.25716247e+02
728             	3.25717504e+02
729             	3.25718722e+02
730             	3.25719866e+02
731             	3.25720986e+02
732             	3.25722027e+02
733             	3.25722926e+02
734             	3.25723700e+02
735             	3.25724420e+02
736             	3.25725068e+02
737             	3.25725707e+02
738             	3.25726351e+02
739             	3.25727064e+02
740             	3.25727704e+02
741             	3.25728291e+02
742             	3.25728765e+02
743             	3.25729216e+02
744             	3.25729655e+02
745             	3.25730116e+02
746             	3.25730602e+02
747             	3.25731112e+02
748             	3.25731627e+02
749             	3.25732152e+02
750             	3.25732684e+02
751             	3.25733340e+02
752             	3.25734114e+02
753             	3.25734879e+02
754             	3.25735755e+02
755             	3.25736698e+02
756             	3.25737633e+02
757             	3.25738581e+02
758             	3.25739499e+02
759             	3.25740360e+02
760             	3.25741173e+02
761             	3.25742008e+02
762             	3.25742874e+02
763             	3.25743807e+02
764             	3.25744855e+02
765             	3.25745966e+02
766             	3.25747019e+02
767             	3.25747997e+02
768             	3.25748919e+02
769             	3.25749800e+02
770             	3.25750662e+02
771             	3.25751471e+02
772             	3.25752234e+02
773             	3.25752939e+02
774             	3.25753540e+02
775             	3.25754045e+02
776             	3.25754384e+02
777             	3.25754690e+02
778             	3.25754890e+02
779             	3.25755031e+02
780             	3.25755156e+02
781             	3.25755292e+02
782             	3.25755450e+02
783             	3.25755663e+02
784             	3.25755910e+02
785             	3.25756195e+02
786             	3.25756492e+02
787             	3.25756804e+02
788             	3.25757146e+02
789             	3.25757536e+02
790             	3.25757965e+02
791             	3.25758414e+02
792             	3.25758898e+02
793             	3.25759396e+02
794             	3.25759931e+02
795             	3.25760526e+02
796             	3.25761181e+02
797             	3.25761883e+02
798             	3.25762594e+02
799             	3.25763351e+02
800             	3.25764163e+02
801             	3.25765046e+02
802             	3.25765961e+02
803             	3.25766878e+02
804             	3.25767816e+02
805             	3.25768734e+02
806             	3.25769611e+02
807             	3.25770457e+02
808             	3.25771273e+02
809             	3.25772061e+02
810             	3.25772783e+02
811             	3.25773351e+02
812             	3.25773691e+02
813             	3.25773863e+02
814             	3.25773931e+02
815             	3.25774001e+02
816             	3.25774145e+02
817             	3.25774361e+02
818             	3.25774624e+02
819             	3.25774885e+02
820             	3.25775095e+02
821             	3.25775233e+02
822             	3.25775285e+02
823             	3.25775293e+02
824             	3.25775295e+02
825             	3.25775320e+02
826             	3.25775365e+02
827             	3.25775456e+02
828             	3.25775582e+02
829             	3.25775737e+02
830             	3.25775915e+02
831             	3.25776086e+02
832             	3.25776300e+02
833             	3.25776583e+02
834             	3.25776913e+02
835             	3.25777319e+02
836             	3.25777740e+02
837             	3.25778209e+02
838             	3.25778729e+02
839             	3.25779268e+02
840             	3.25779775e+02
841             	3.25780282e+02
842             	3.25780810e+02
843             	3.25781381e+02
844             	3.25781962e+02
845             	3.25782513e+02
846             	3.25783085e+02
847             	3.25783761e+02
848             	3.25784463e+02
849             	3.25785135e+02
850             	3.25785761e+02
851             	3.25786316e+02
852             	3.25786778e+02
853             	3.25787106e+02
854             	3.25787285e+02
855             	3.25787396e+02
856             	3.25787530e+02
857             	3.25787705e+02
858             	3.25788000e+02
859             	3.25788136e+02
860             	3.25788185e+02
861             	3.25788184e+02
862             	3.25788131e+02
863             	3.25788047e+02
864             	3.25787988e+02
865             	3.25787981e+02
866             	3.25788033e+02
867             	3.25788128e+02
868             	3.25788279e+02
869             	3.25788474e+02
870             	3.25788684e+02
871             	3.25788934e+02
872             	3.25789201e+02
873             	3.25789501e+02
874             	3.25789744e+02
875             	3.25790004e+02
876             	3.25790261e+02
877             	3.25790537e+02
878             	3.25790826e+02
879             	3.25791132e+02
880             	3.25791426e+02
881             	3.25791761e+02
882             	3.25792178e+02
883             	3.25792682e+02
884             	3.25793268e+02
885             	3.25793847e+02
886             	3.25794429e+02
887             	3.25794994e+02
888             	3.25795340e+02
889             	3.25795567e+02
890             	3.25795703e+02
891             	3.25795752e+02
892             	3.25795789e+02
893             	3.25795846e+02
894             	3.25795942e+02
895             	3.25796119e+02
896             	3.25796418e+02
897             	3.25796829e+02
898             	3.25797276e+02
899             	3.25797639e+02
900             	3.25797877e+02
901             	3.25797991e+02
902             	3.25798048e+02
903             	3.25798035e+02
904             	3.25797966e+02
905             	3.25797858e+02
906             	3.25797799e+02
907             	3.25797820e+02
908             	3.25797970e+02
909             	3.25798226e+02
910             	3.25798545e+02
911             	3.25798855e+02
912             	3.25799110e+02
913             	3.25799304e+02
914             	3.25799439e+02
915             	3.25799539e+02
916             	3.25799640e+02
917             	3.25799788e+02
918             	3.25800060e+02
919             	3.25800589e+02
920             	3.25801243e+02
921             	3.25801925e+02
922             	3.25802548e+02
923             	3.25803088e+02
924             	3.25803567e+02
925             	3.25803994e+02
926             	3.25804395e+02
927             	3.25804725e+02
928             	3.25804975e+02
929             	3.25805132e+02
930             	3.25805255e+02
931             	3.25805426e+02
932             	3.25805368e+02
933             	3.25805163e+02