# Region        : cellZone component_1
# Cells         : 365
# Volume        : 6.80946080e-01
# Time          	volAverage(T)
1               	3.00127981e+02
2               	3.00253490e+02
3               	3.00368259e+02
4               	3.00476134e+02
5               	3.00580579e+02
6               	3.00682815e+02
7               	3.00782805e+02
8               	3.00881009e+02
9               	3.00977370e+02
10              	3.01072040e+02
11              	3.01165158e+02
12              	3.01257123e+02
13              	3.01347957e+02
14              	3.01438014e+02
15              	3.01527554e+02
16              	3.01617068e+02
17              	3.01706853e+02
18              	3.01796451e+02
19              	3.01885896e+02
20              	3.01974579e+02
21              	3.02062267e+02
22              	3.02148334e+02
23              	3.02232418e+02
24              	3.02314035e+02
25              	3.02393571e+02
26              	3.02470623e+02
27              	3.02545210e+02
28              	3.02617423e+02
29              	3.02687739e+02
30              	3.02756663e+02
31              	3.02824661e+02
32              	3.02892185e+02
33              	3.02959273e+02
34              	3.03026576e+02
35              	3.03094046e+02
36              	3.03160447e+02
37              	3.03225791e+02
38              	3.03290737e+02
39              	3.03355078e+02
40              	3.03418460e+02
41              	3.03482724e+02
42              	3.03547704e+02
43              	3.03613333e+02
44              	3.03678947e+02
45              	3.03743821e+02
46              	3.03808386e+02
47              	3.03872181e+02
48              	3.03933772e+02
49              	3.03994353e+02
50              	3.04050567e+02
51              	3.04105146e+02
52              	3.04157090e+02
53              	3.04207124e+02
54              	3.04256489e+02
55              	3.04305788e+02
56              	3.04355702e+02
57              	3.04406913e+02
58              	3.04459081e+02
59              	3.04511777e+02
60              	3.04564861e+02
61              	3.04616684e+02
62              	3.04665368e+02
63              	3.04713534e+02
64              	3.04760224e+02
65              	3.04807262e+02
66              	3.04854463e+02
67              	3.04901110e+02
68              	3.04949091e+02
69              	3.04995077e+02
70              	3.05040122e+02
71              	3.05084262e+02
72              	3.05126310e+02
73              	3.05167533e+02
74              	3.05204968e+02
75              	3.05243544e+02
76              	3.05281754e+02
77              	3.05318087e+02
78              	3.05354213e+02
79              	3.05390117e+02
80              	3.05424782e+02
81              	3.05459794e+02
82              	3.05493965e+02
83              	3.05529717e+02
84              	3.05563058e+02
85              	3.05595811e+02
86              	3.05628371e+02
87              	3.05660010e+02
88              	3.05692361e+02
89              	3.05724208e+02
90              	3.05754016e+02
91              	3.05783967e+02
92              	3.05813685e+02
93              	3.05842843e+02
94              	3.05872643e+02
95              	3.05902702e+02
96              	3.05932599e+02
97              	3.05961438e+02
98              	3.05988631e+02
99              	3.06014046e+02
100             	3.06037951e+02
101             	3.06060170e+02
102             	3.06080892e+02
103             	3.06100399e+02
104             	3.06119255e+02
105             	3.06137897e+02
106             	3.06156280e+02
107             	3.06175058e+02
108             	3.06194228e+02
109             	3.06214027e+02
110             	3.06233894e+02
111             	3.06253148e+02
112             	3.06271840e+02
113             	3.06289970e+02
114             	3.06307945e+02
115             	3.06325424e+02
116             	3.06342447e+02
117             	3.06359202e+02
118             	3.06376020e+02
119             	3.06392830e+02
120             	3.06409700e+02
121             	3.06426103e+02
122             	3.06442060e+02
123             	3.06457480e+02
124             	3.06472600e+02
125             	3.06487350e+02
126             	3.06501372e+02
127             	3.06514280e+02
128             	3.06526411e+02
129             	3.06537710e+02
130             	3.06548172e+02
131             	3.06557733e+02
132             	3.06566426e+02
133             	3.06574326e+02
134             	3.06581467e+02
135             	3.06587964e+02
136             	3.06593859e+02
137             	3.06599160e+02
138             	3.06603958e+02
139             	3.06608279e+02
140             	3.06612348e+02
141             	3.06616832e+02
142             	3.06621861e+02
143             	3.06627423e+02
144             	3.06633317e+02
145             	3.06639441e+02
146             	3.06645725e+02
147             	3.06652246e+02
148             	3.06658985e+02
149             	3.06664940e+02
150             	3.06669921e+02
151             	3.06674304e+02
152             	3.06678159e+02
153             	3.06681661e+02
154             	3.06685061e+02
155             	3.06688069e+02
156             	3.06690800e+02
157             	3.06693568e+02
158             	3.06696330e+02
159             	3.06699441e+02
160             	3.06702535e+02
161             	3.06705024e+02
162             	3.06707260e+02
163             	3.06709208e+02
164             	3.06710926e+02
165             	3.06712321e+02
166             	3.06713569e+02
167             	3.06714878e+02
168             	3.06716411e+02
169             	3.06718511e+02
170             	3.06721277e+02
171             	3.06724888e+02
172             	3.06728945e+02
173             	3.06733424e+02
174             	3.06738156e+02
175             	3.06742834e+02
176             	3.06747338e+02
177             	3.06751480e+02
178             	3.06754965e+02
179             	3.06757948e+02
180             	3.06760374e+02
181             	3.06762449e+02
182             	3.06764252e+02
183             	3.06765818e+02
184             	3.06767203e+02
185             	3.06768497e+02
186             	3.06769749e+02
187             	3.06770947e+02
188             	3.06771855e+02
189             	3.06772760e+02
190             	3.06773440e+02
191             	3.06774280e+02
192             	3.06775254e+02
193             	3.06776382e+02
194             	3.06777756e+02
195             	3.06779329e+02
196             	3.06781122e+02
197             	3.06783036e+02
198             	3.06785064e+02
199             	3.06787170e+02
200             	3.06789388e+02
201             	3.06791698e+02
202             	3.06794081e+02
203             	3.06796442e+02
204             	3.06798718e+02
205             	3.06800951e+02
206             	3.06803141e+02
207             	3.06805366e+02
208             	3.06807696e+02
209             	3.06810236e+02
210             	3.06812911e+02
211             	3.06815554e+02
212             	3.06818256e+02
213             	3.06820792e+02
214             	3.06823418e+02
215             	3.06826080e+02
216             	3.06828708e+02
217             	3.06831219e+02
218             	3.06833537e+02
219             	3.06835585e+02
220             	3.06837395e+02
221             	3.06838970e+02
222             	3.06840384e+02
223             	3.06841628e+02
224             	3.06842812e+02
225             	3.06843954e+02
226             	3.06845070e+02
227             	3.06846267e+02
228             	3.06847602e+02
229             	3.06849114e+02
230             	3.06850808e+02
231             	3.06852667e+02
232             	3.06854725e+02
233             	3.06856990e+02
234             	3.06859544e+02
235             	3.06862135e+02
236             	3.06864768e+02
237             	3.06867233e+02
238             	3.06869369e+02
239             	3.06871272e+02
240             	3.06872938e+02
241             	3.06874360e+02
242             	3.06875529e+02
243             	3.06876473e+02
244             	3.06877253e+02
245             	3.06877978e+02
246             	3.06878663e+02
247             	3.06879288e+02
248             	3.06879838e+02
249             	3.06880541e+02
250             	3.06881353e+02
251             	3.06882404e+02
252             	3.06883723e+02
253             	3.06885233e+02
254             	3.06886900e+02
255             	3.06888691e+02
256             	3.06890569e+02
257             	3.06892493e+02
258             	3.06894489e+02
259             	3.06896661e+02
260             	3.06898853e+02
261             	3.06900981e+02
262             	3.06903098e+02
263             	3.06905150e+02
264             	3.06907191e+02
265             	3.06909182e+02
266             	3.06910970e+02
267             	3.06912498e+02
268             	3.06913739e+02
269             	3.06914749e+02
270             	3.06915544e+02
271             	3.06916127e+02
272             	3.06916530e+02
273             	3.06916829e+02
274             	3.06917059e+02
275             	3.06917296e+02
276             	3.06917582e+02
277             	3.06917883e+02
278             	3.06918301e+02
279             	3.06918887e+02
280             	3.06919639e+02
281             	3.06920561e+02
282             	3.06921641e+02
283             	3.06922817e+02
284             	3.06924035e+02
285             	3.06925354e+02
286             	3.06926833e+02
287             	3.06928437e+02
288             	3.06930061e+02
289             	3.06931618e+02
290             	3.06933054e+02
291             	3.06934183e+02
292             	3.06935214e+02
293             	3.06936216e+02
294             	3.06937214e+02
295             	3.06938182e+02
296             	3.06939148e+02
297             	3.06940104e+02
298             	3.06941036e+02
299             	3.06941867e+02
300             	3.06942578e+02
301             	3.06943216e+02
302             	3.06943795e+02
303             	3.06944310e+02
304             	3.06944749e+02
305             	3.06945091e+02
306             	3.06945368e+02
307             	3.06945643e+02
308             	3.06945905e+02
309             	3.06946196e+02
310             	3.06946561e+02
311             	3.06947025e+02
312             	3.06947632e+02
313             	3.06948394e+02
314             	3.06949297e+02
315             	3.06950374e+02
316             	3.06951594e+02
317             	3.06952961e+02
318             	3.06954468e+02
319             	3.06956040e+02
320             	3.06957601e+02
321             	3.06959272e+02
322             	3.06960886e+02
323             	3.06962536e+02
324             	3.06964215e+02
325             	3.06965749e+02
326             	3.06967169e+02
327             	3.06968403e+02
328             	3.06969453e+02
329             	3.06970336e+02
330             	3.06971090e+02
331             	3.06971696e+02
332             	3.06972162e+02
333             	3.06972483e+02
334             	3.06972725e+02
335             	3.06972992e+02
336             	3.06973356e+02
337             	3.06973730e+02
338             	3.06974113e+02
339             	3.06974642e+02
340             	3.06975170e+02
341             	3.06975685e+02
342             	3.06976300e+02
343             	3.06976910e+02
344             	3.06977588e+02
345             	3.06978306e+02
346             	3.06979004e+02
347             	3.06979732e+02
348             	3.06980455e+02
349             	3.06981155e+02
350             	3.06981857e+02
351             	3.06982566e+02
352             	3.06983245e+02
353             	3.06983950e+02
354             	3.06984665e+02
355             	3.06985360e+02
356             	3.06986169e+02
357             	3.06987009e+02
358             	3.06987823e+02
359             	3.06988727e+02
360             	3.06989657e+02
361             	3.06990554e+02
362             	3.06991447e+02
363             	3.06992304e+02
364             	3.06993128e+02
365             	3.06993957e+02
366             	3.06994754e+02
367             	3.06995542e+02
368             	3.06996312e+02
369             	3.06997043e+02
370             	3.06997806e+02
371             	3.06998514e+02
372             	3.06999184e+02
373             	3.06999847e+02
374             	3.07000488e+02
375             	3.07000992e+02
376             	3.07001525e+02
377             	3.07001905e+02
378             	3.07002143e+02
379             	3.07002411e+02
380             	3.07002635e+02
381             	3.07002801e+02
382             	3.07002987e+02
383             	3.07003191e+02
384             	3.07003567e+02
385             	3.07003946e+02
386             	3.07004377e+02
387             	3.07004912e+02
388             	3.07005413e+02
389             	3.07005983e+02
390             	3.07006587e+02
391             	3.07007207e+02
392             	3.07007867e+02
393             	3.07008576e+02
394             	3.07009294e+02
395             	3.07009970e+02
396             	3.07010599e+02
397             	3.07011242e+02
398             	3.07011835e+02
399             	3.07012408e+02
400             	3.07012979e+02
401             	3.07013534e+02
402             	3.07014070e+02
403             	3.07014629e+02
404             	3.07015198e+02
405             	3.07015769e+02
406             	3.07016357e+02
407             	3.07016912e+02
408             	3.07017445e+02
409             	3.07017988e+02
410             	3.07018484e+02
411             	3.07018949e+02
412             	3.07019403e+02
413             	3.07019815e+02
414             	3.07020161e+02
415             	3.07020510e+02
416             	3.07020876e+02
417             	3.07021245e+02
418             	3.07021631e+02
419             	3.07022040e+02
420             	3.07022479e+02
421             	3.07022920e+02
422             	3.07023342e+02
423             	3.07023803e+02
424             	3.07024274e+02
425             	3.07024846e+02
426             	3.07025474e+02
427             	3.07026137e+02
428             	3.07026751e+02
429             	3.07027323e+02
430             	3.07027881e+02
431             	3.07028382e+02
432             	3.07028785e+02
433             	3.07029202e+02
434             	3.07029551e+02
435             	3.07029843e+02
436             	3.07030155e+02
437             	3.07030520e+02
438             	3.07030861e+02
439             	3.07031236e+02
440             	3.07031583e+02
441             	3.07031906e+02
442             	3.07032233e+02
443             	3.07032588e+02
444             	3.07033003e+02
445             	3.07033421e+02
446             	3.07033854e+02
447             	3.07034281e+02
448             	3.07034708e+02
449             	3.07035149e+02
450             	3.07035564e+02
451             	3.07035985e+02
452             	3.07036429e+02
453             	3.07036894e+02
454             	3.07037379e+02
455             	3.07037842e+02
456             	3.07038307e+02
457             	3.07038796e+02
458             	3.07039300e+02
459             	3.07039794e+02
460             	3.07040286e+02
461             	3.07040750e+02
462             	3.07041171e+02
463             	3.07041605e+02
464             	3.07041952e+02
465             	3.07042239e+02
466             	3.07042543e+02
467             	3.07042825e+02
468             	3.07043080e+02
469             	3.07043350e+02
470             	3.07043597e+02
471             	3.07043822e+02
472             	3.07044066e+02
473             	3.07044267e+02
474             	3.07044463e+02
475             	3.07044670e+02
476             	3.07044895e+02
477             	3.07045118e+02
478             	3.07045338e+02
479             	3.07045619e+02
480             	3.07045966e+02
481             	3.07046321e+02
482             	3.07046693e+02
483             	3.07047090e+02
484             	3.07047512e+02
485             	3.07047853e+02
486             	3.07048170e+02
487             	3.07048502e+02
488             	3.07048800e+02
489             	3.07049072e+02
490             	3.07049349e+02
491             	3.07049605e+02
492             	3.07049814e+02
493             	3.07050007e+02
494             	3.07050189e+02
495             	3.07050333e+02
496             	3.07050476e+02
497             	3.07050617e+02
498             	3.07050747e+02
499             	3.07050888e+02
500             	3.07051060e+02
501             	3.07051266e+02
502             	3.07051486e+02
503             	3.07051702e+02
504             	3.07052034e+02
505             	3.07052372e+02
506             	3.07052786e+02
507             	3.07053212e+02
508             	3.07053620e+02
509             	3.07054068e+02
510             	3.07054489e+02
511             	3.07054878e+02
512             	3.07055264e+02
513             	3.07055586e+02
514             	3.07055887e+02
515             	3.07056117e+02
516             	3.07056286e+02
517             	3.07056455e+02
518             	3.07056617e+02
519             	3.07056774e+02
520             	3.07056928e+02
521             	3.07057086e+02
522             	3.07057247e+02
523             	3.07057407e+02
524             	3.07057553e+02
525             	3.07057652e+02
526             	3.07057756e+02
527             	3.07057856e+02
528             	3.07057924e+02
529             	3.07057999e+02
530             	3.07057998e+02
531             	3.07057952e+02
532             	3.07057931e+02
533             	3.07057881e+02
534             	3.07057800e+02
535             	3.07057735e+02
536             	3.07057642e+02
537             	3.07057566e+02
538             	3.07057490e+02
539             	3.07057535e+02
540             	3.07057593e+02
541             	3.07057640e+02
542             	3.07057735e+02
543             	3.07057857e+02
544             	3.07057965e+02
545             	3.07058092e+02
546             	3.07058230e+02
547             	3.07058375e+02
548             	3.07058510e+02
549             	3.07058631e+02
550             	3.07058757e+02
551             	3.07058834e+02
552             	3.07058874e+02
553             	3.07058926e+02
554             	3.07058919e+02
555             	3.07058881e+02
556             	3.07058854e+02
557             	3.07058832e+02
558             	3.07058820e+02
559             	3.07058810e+02
560             	3.07058833e+02
561             	3.07058892e+02
562             	3.07058950e+02
563             	3.07059055e+02
564             	3.07059186e+02
565             	3.07059317e+02
566             	3.07059433e+02
567             	3.07059624e+02
568             	3.07059814e+02
569             	3.07060085e+02
570             	3.07060415e+02
571             	3.07060713e+02
572             	3.07061056e+02
573             	3.07061422e+02
574             	3.07061795e+02
575             	3.07062074e+02
576             	3.07062308e+02
577             	3.07062546e+02
578             	3.07062749e+02
579             	3.07062909e+02
580             	3.07063066e+02
581             	3.07063244e+02
582             	3.07063403e+02
583             	3.07063568e+02
584             	3.07063710e+02
585             	3.07063817e+02
586             	3.07063942e+02
587             	3.07064017e+02
588             	3.07064076e+02
589             	3.07064155e+02
590             	3.07064191e+02
591             	3.07064219e+02
592             	3.07064265e+02
593             	3.07064316e+02
594             	3.07064366e+02
595             	3.07064418e+02
596             	3.07064496e+02
597             	3.07064602e+02
598             	3.07064711e+02
599             	3.07064841e+02
600             	3.07064979e+02
601             	3.07065122e+02
602             	3.07065283e+02
603             	3.07065462e+02
604             	3.07065641e+02
605             	3.07065845e+02
606             	3.07066070e+02
607             	3.07066297e+02
608             	3.07066515e+02
609             	3.07066718e+02
610             	3.07066926e+02
611             	3.07067127e+02
612             	3.07067322e+02
613             	3.07067528e+02
614             	3.07067699e+02
615             	3.07067835e+02
616             	3.07067981e+02
617             	3.07068121e+02
618             	3.07068221e+02
619             	3.07068324e+02
620             	3.07068385e+02
621             	3.07068419e+02
622             	3.07068458e+02
623             	3.07068544e+02
624             	3.07068661e+02
625             	3.07068782e+02
626             	3.07068961e+02
627             	3.07069182e+02
628             	3.07069402e+02
629             	3.07069607e+02
630             	3.07069819e+02
631             	3.07070024e+02
632             	3.07070267e+02
633             	3.07070537e+02
634             	3.07070812e+02
635             	3.07071033e+02
636             	3.07071213e+02
637             	3.07071395e+02
638             	3.07071529e+02
639             	3.07071623e+02
640             	3.07071721e+02
641             	3.07071805e+02
642             	3.07071858e+02
643             	3.07071921e+02
644             	3.07071949e+02
645             	3.07071964e+02
646             	3.07071992e+02
647             	3.07072034e+02
648             	3.07072079e+02
649             	3.07072138e+02
650             	3.07072142e+02
651             	3.07072108e+02
652             	3.07072077e+02
653             	3.07072060e+02
654             	3.07072054e+02
655             	3.07072054e+02
656             	3.07072060e+02
657             	3.07072109e+02
658             	3.07072160e+02
659             	3.07072204e+02
660             	3.07072278e+02
661             	3.07072349e+02
662             	3.07072462e+02
663             	3.07072635e+02
664             	3.07072806e+02
665             	3.07073002e+02
666             	3.07073222e+02
667             	3.07073446e+02
668             	3.07073606e+02
669             	3.07073734e+02
670             	3.07073866e+02
671             	3.07073958e+02
672             	3.07074017e+02
673             	3.07074081e+02
674             	3.07074135e+02
675             	3.07074174e+02
676             	3.07074204e+02
677             	3.07074294e+02
678             	3.07074406e+02
679             	3.07074518e+02
680             	3.07074611e+02
681             	3.07074677e+02
682             	3.07074739e+02
683             	3.07074800e+02
684             	3.07074936e+02
685             	3.07075084e+02
686             	3.07075170e+02
687             	3.07075217e+02
688             	3.07075271e+02
689             	3.07075301e+02
690             	3.07075331e+02
691             	3.07075364e+02
692             	3.07075410e+02
693             	3.07075461e+02
694             	3.07075509e+02
695             	3.07075607e+02
696             	3.07075748e+02
697             	3.07075893e+02
698             	3.07076063e+02
699             	3.07076267e+02
700             	3.07076471e+02
701             	3.07076690e+02
702             	3.07076919e+02
703             	3.07077145e+02
704             	3.07077373e+02
705             	3.07077591e+02
706             	3.07077810e+02
707             	3.07078009e+02
708             	3.07078176e+02
709             	3.07078350e+02
710             	3.07078511e+02
711             	3.07078634e+02
712             	3.07078755e+02
713             	3.07078832e+02
714             	3.07078875e+02
715             	3.07078920e+02
716             	3.07078930e+02
717             	3.07078910e+02
718             	3.07078893e+02
719             	3.07078858e+02
720             	3.07078817e+02
721             	3.07078783e+02
722             	3.07078750e+02
723             	3.07078724e+02
724             	3.07078703e+02
725             	3.07078691e+02
726             	3.07078688e+02
727             	3.07078685e+02
728             	3.07078682e+02
729             	3.07078672e+02
730             	3.07078660e+02
731             	3.07078640e+02
732             	3.07078611e+02
733             	3.07078581e+02
734             	3.07078557e+02
735             	3.07078539e+02
736             	3.07078518e+02
737             	3.07078499e+02
738             	3.07078486e+02
739             	3.07078469e+02
740             	3.07078472e+02
741             	3.07078491e+02
742             	3.07078508e+02
743             	3.07078536e+02
744             	3.07078575e+02
745             	3.07078619e+02
746             	3.07078660e+02
747             	3.07078704e+02
748             	3.07078753e+02
749             	3.07078804e+02
750             	3.07078875e+02
751             	3.07078951e+02
752             	3.07079041e+02
753             	3.07079133e+02
754             	3.07079226e+02
755             	3.07079308e+02
756             	3.07079382e+02
757             	3.07079456e+02
758             	3.07079533e+02
759             	3.07079614e+02
760             	3.07079693e+02
761             	3.07079779e+02
762             	3.07079866e+02
763             	3.07079949e+02
764             	3.07080038e+02
765             	3.07080137e+02
766             	3.07080233e+02
767             	3.07080320e+02
768             	3.07080403e+02
769             	3.07080488e+02
770             	3.07080560e+02
771             	3.07080633e+02
772             	3.07080713e+02
773             	3.07080762e+02
774             	3.07080795e+02
775             	3.07080832e+02
776             	3.07080852e+02
777             	3.07080859e+02
778             	3.07080866e+02
779             	3.07080864e+02
780             	3.07080848e+02
781             	3.07080833e+02
782             	3.07080817e+02
783             	3.07080796e+02
784             	3.07080777e+02
785             	3.07080762e+02
786             	3.07080747e+02
787             	3.07080733e+02
788             	3.07080730e+02
789             	3.07080740e+02
790             	3.07080751e+02
791             	3.07080778e+02
792             	3.07080821e+02
793             	3.07080864e+02
794             	3.07080917e+02
795             	3.07080988e+02
796             	3.07081059e+02
797             	3.07081143e+02
798             	3.07081239e+02
799             	3.07081339e+02
800             	3.07081431e+02
801             	3.07081521e+02
802             	3.07081615e+02
803             	3.07081694e+02
804             	3.07081763e+02
805             	3.07081836e+02
806             	3.07081897e+02
807             	3.07081940e+02
808             	3.07081984e+02
809             	3.07082015e+02
810             	3.07082033e+02
811             	3.07082052e+02
812             	3.07082069e+02
813             	3.07082093e+02
814             	3.07082123e+02
815             	3.07082145e+02
816             	3.07082175e+02
817             	3.07082209e+02
818             	3.07082252e+02
819             	3.07082309e+02
820             	3.07082370e+02
821             	3.07082439e+02
822             	3.07082512e+02
823             	3.07082584e+02
824             	3.07082663e+02
825             	3.07082746e+02
826             	3.07082830e+02
827             	3.07082905e+02
828             	3.07082994e+02
829             	3.07083084e+02
830             	3.07083161e+02
831             	3.07083230e+02
832             	3.07083295e+02
833             	3.07083349e+02
834             	3.07083394e+02
835             	3.07083439e+02
836             	3.07083482e+02
837             	3.07083520e+02
838             	3.07083561e+02
839             	3.07083588e+02
840             	3.07083594e+02
841             	3.07083601e+02
842             	3.07083613e+02
843             	3.07083619e+02
844             	3.07083628e+02
845             	3.07083630e+02
846             	3.07083629e+02
847             	3.07083628e+02
848             	3.07083640e+02
849             	3.07083668e+02
850             	3.07083698e+02
851             	3.07083747e+02
852             	3.07083804e+02
853             	3.07083862e+02
854             	3.07083922e+02
855             	3.07083984e+02
856             	3.07084046e+02
857             	3.07084105e+02
858             	3.07084166e+02
859             	3.07084226e+02
860             	3.07084280e+02
861             	3.07084342e+02
862             	3.07084410e+02
863             	3.07084456e+02
864             	3.07084496e+02
865             	3.07084538e+02
866             	3.07084564e+02
867             	3.07084574e+02
868             	3.07084588e+02
869             	3.07084571e+02
870             	3.07084549e+02
871             	3.07084535e+02
872             	3.07084509e+02
873             	3.07084491e+02
874             	3.07084474e+02
875             	3.07084477e+02
876             	3.07084491e+02
877             	3.07084504e+02
878             	3.07084517e+02
879             	3.07084539e+02
880             	3.07084562e+02
881             	3.07084593e+02
882             	3.07084632e+02
883             	3.07084671e+02
884             	3.07084708e+02
885             	3.07084753e+02
886             	3.07084794e+02
887             	3.07084840e+02
888             	3.07084888e+02
889             	3.07084934e+02
890             	3.07084986e+02
891             	3.07085043e+02
892             	3.07085101e+02
893             	3.07085152e+02
894             	3.07085203e+02
895             	3.07085257e+02
896             	3.07085302e+02
897             	3.07085326e+02
898             	3.07085353e+02
899             	3.07085384e+02
900             	3.07085420e+02
901             	3.07085459e+02
902             	3.07085498e+02
903             	3.07085511e+02
904             	3.07085525e+02
905             	3.07085508e+02
906             	3.07085470e+02
907             	3.07085430e+02
908             	3.07085386e+02
909             	3.07085334e+02
910             	3.07085282e+02
911             	3.07085232e+02
912             	3.07085199e+02
913             	3.07085171e+02
914             	3.07085143e+02
915             	3.07085118e+02
916             	3.07085093e+02
917             	3.07085073e+02
918             	3.07085066e+02
919             	3.07085065e+02
920             	3.07085065e+02
921             	3.07085076e+02
922             	3.07085090e+02
923             	3.07085121e+02
924             	3.07085163e+02
925             	3.07085203e+02
926             	3.07085239e+02
927             	3.07085279e+02
928             	3.07085318e+02
929             	3.07085352e+02
930             	3.07085379e+02
931             	3.07085402e+02
932             	3.07085414e+02
933             	3.07085418e+02