# Region        : cellZone component_1
# Cells         : 252
# Volume        : 5.26064162e-01
# Time          	volAverage(T)
1               	3.00389542e+02
2               	3.00774284e+02
3               	3.01121765e+02
4               	3.01443437e+02
5               	3.01752537e+02
6               	3.02053319e+02
7               	3.02347984e+02
8               	3.02637869e+02
9               	3.02922101e+02
10              	3.03201550e+02
11              	3.03476200e+02
12              	3.03745579e+02
13              	3.04012279e+02
14              	3.04273306e+02
15              	3.04529684e+02
16              	3.04780782e+02
17              	3.05027561e+02
18              	3.05275175e+02
19              	3.05521542e+02
20              	3.05765735e+02
21              	3.06007259e+02
22              	3.06245191e+02
23              	3.06476834e+02
24              	3.06703374e+02
25              	3.06921779e+02
26              	3.07132942e+02
27              	3.07335701e+02
28              	3.07531513e+02
29              	3.07719552e+02
30              	3.07899763e+02
31              	3.08076327e+02
32              	3.08250000e+02
33              	3.08418561e+02
34              	3.08588686e+02
35              	3.08759175e+02
36              	3.08926945e+02
37              	3.09093092e+02
38              	3.09257303e+02
39              	3.09412636e+02
40              	3.09565185e+02
41              	3.09713460e+02
42              	3.09853569e+02
43              	3.09985002e+02
44              	3.10111974e+02
45              	3.10231544e+02
46              	3.10340080e+02
47              	3.10444896e+02
48              	3.10549198e+02
49              	3.10653396e+02
50              	3.10766330e+02
51              	3.10880415e+02
52              	3.10970838e+02
53              	3.11019836e+02
54              	3.11052579e+02
55              	3.11098560e+02
56              	3.11158602e+02
57              	3.11220282e+02
58              	3.11278558e+02
59              	3.11332883e+02
60              	3.11381430e+02
61              	3.11427781e+02
62              	3.11479880e+02
63              	3.11542287e+02
64              	3.11621688e+02
65              	3.11693857e+02
66              	3.11762235e+02
67              	3.11816526e+02
68              	3.11880547e+02
69              	3.11941064e+02
70              	3.11994785e+02
71              	3.12045171e+02
72              	3.12093583e+02
73              	3.12142214e+02
74              	3.12190766e+02
75              	3.12236284e+02
76              	3.12282162e+02
77              	3.12327015e+02
78              	3.12375775e+02
79              	3.12425922e+02
80              	3.12483253e+02
81              	3.12551492e+02
82              	3.12625869e+02
83              	3.12695653e+02
84              	3.12764407e+02
85              	3.12824876e+02
86              	3.12879887e+02
87              	3.12931219e+02
88              	3.12976399e+02
89              	3.13016527e+02
90              	3.13052731e+02
91              	3.13087685e+02
92              	3.13119517e+02
93              	3.13156980e+02
94              	3.13198716e+02
95              	3.13242842e+02
96              	3.13292446e+02
97              	3.13346122e+02
98              	3.13405409e+02
99              	3.13465747e+02
100             	3.13522579e+02
101             	3.13578367e+02
102             	3.13627733e+02
103             	3.13670717e+02
104             	3.13708568e+02
105             	3.13741829e+02
106             	3.13773157e+02
107             	3.13804353e+02
108             	3.13836186e+02
109             	3.13867622e+02
110             	3.13901265e+02
111             	3.13938436e+02
112             	3.13979905e+02
113             	3.14023380e+02
114             	3.14070302e+02
115             	3.14119550e+02
116             	3.14170186e+02
117             	3.14221216e+02
118             	3.14272706e+02
119             	3.14324448e+02
120             	3.14375549e+02
121             	3.14423842e+02
122             	3.14469744e+02
123             	3.14510512e+02
124             	3.14545617e+02
125             	3.14575333e+02
126             	3.14601291e+02
127             	3.14624752e+02
128             	3.14647440e+02
129             	3.14671398e+02
130             	3.14697804e+02
131             	3.14728487e+02
132             	3.14764737e+02
133             	3.14806735e+02
134             	3.14854272e+02
135             	3.14898209e+02
136             	3.14942035e+02
137             	3.14982646e+02
138             	3.15018164e+02
139             	3.15049299e+02
140             	3.15076598e+02
141             	3.15099318e+02
142             	3.15119160e+02
143             	3.15138656e+02
144             	3.15159780e+02
145             	3.15183086e+02
146             	3.15209070e+02
147             	3.15238782e+02
148             	3.15270963e+02
149             	3.15302567e+02
150             	3.15334386e+02
151             	3.15364917e+02
152             	3.15393429e+02
153             	3.15418442e+02
154             	3.15439316e+02
155             	3.15455969e+02
156             	3.15470014e+02
157             	3.15482147e+02
158             	3.15492750e+02
159             	3.15504357e+02
160             	3.15518325e+02
161             	3.15535060e+02
162             	3.15553955e+02
163             	3.15574182e+02
164             	3.15594632e+02
165             	3.15613887e+02
166             	3.15633191e+02
167             	3.15651769e+02
168             	3.15669073e+02
169             	3.15684886e+02
170             	3.15699727e+02
171             	3.15715181e+02
172             	3.15731240e+02
173             	3.15748760e+02
174             	3.15766181e+02
175             	3.15783756e+02
176             	3.15800445e+02
177             	3.15815691e+02
178             	3.15828105e+02
179             	3.15838365e+02
180             	3.15847887e+02
181             	3.15857206e+02
182             	3.15867159e+02
183             	3.15879392e+02
184             	3.15892581e+02
185             	3.15908274e+02
186             	3.15925478e+02
187             	3.15942360e+02
188             	3.15958011e+02
189             	3.15972212e+02
190             	3.15985725e+02
191             	3.15997984e+02
192             	3.16009557e+02
193             	3.16021213e+02
194             	3.16033289e+02
195             	3.16046590e+02
196             	3.16059947e+02
197             	3.16073655e+02
198             	3.16087218e+02
199             	3.16100581e+02
200             	3.16112795e+02
201             	3.16123934e+02
202             	3.16134571e+02
203             	3.16144534e+02
204             	3.16154105e+02
205             	3.16162012e+02
206             	3.16171211e+02
207             	3.16181622e+02
208             	3.16191703e+02
209             	3.16201540e+02
210             	3.16210852e+02
211             	3.16220129e+02
212             	3.16229665e+02
213             	3.16238883e+02
214             	3.16248496e+02
215             	3.16255125e+02
216             	3.16263469e+02
217             	3.16273117e+02
218             	3.16284248e+02
219             	3.16296463e+02
220             	3.16309531e+02
221             	3.16321108e+02
222             	3.16333144e+02
223             	3.16344018e+02
224             	3.16353707e+02
225             	3.16362160e+02
226             	3.16369299e+02
227             	3.16375001e+02
228             	3.16379229e+02
229             	3.16382327e+02
230             	3.16385005e+02
231             	3.16388489e+02
232             	3.16392676e+02
233             	3.16397225e+02
234             	3.16402196e+02
235             	3.16407679e+02
236             	3.16414847e+02
237             	3.16422428e+02
238             	3.16430895e+02
239             	3.16440010e+02
240             	3.16449281e+02
241             	3.16458355e+02
242             	3.16466936e+02
243             	3.16475043e+02
244             	3.16482453e+02
245             	3.16489437e+02
246             	3.16496096e+02
247             	3.16502359e+02
248             	3.16508005e+02
249             	3.16513570e+02
250             	3.16518725e+02
251             	3.16523147e+02
252             	3.16526156e+02
253             	3.16529323e+02
254             	3.16532540e+02
255             	3.16536045e+02
256             	3.16539577e+02
257             	3.16543043e+02
258             	3.16546538e+02
259             	3.16550222e+02
260             	3.16554046e+02
261             	3.16557815e+02
262             	3.16561193e+02
263             	3.16564635e+02
264             	3.16568137e+02
265             	3.16571378e+02
266             	3.16574577e+02
267             	3.16578049e+02
268             	3.16581752e+02
269             	3.16586044e+02
270             	3.16590472e+02
271             	3.16594989e+02
272             	3.16600087e+02
273             	3.16605361e+02
274             	3.16610267e+02
275             	3.16614831e+02
276             	3.16619246e+02
277             	3.16623100e+02
278             	3.16626034e+02
279             	3.16628508e+02
280             	3.16630762e+02
281             	3.16632858e+02
282             	3.16634853e+02
283             	3.16636867e+02
284             	3.16639128e+02
285             	3.16641481e+02
286             	3.16643818e+02
287             	3.16646185e+02
288             	3.16648748e+02
289             	3.16650913e+02
290             	3.16653094e+02
291             	3.16655426e+02
292             	3.16657756e+02
293             	3.16660168e+02
294             	3.16662663e+02
295             	3.16665284e+02
296             	3.16668048e+02
297             	3.16670957e+02
298             	3.16673874e+02
299             	3.16676729e+02
300             	3.16679406e+02
301             	3.16681924e+02
302             	3.16684480e+02
303             	3.16686765e+02
304             	3.16688620e+02
305             	3.16690209e+02
306             	3.16691569e+02
307             	3.16692700e+02
308             	3.16693774e+02
309             	3.16694987e+02
310             	3.16696496e+02
311             	3.16698310e+02
312             	3.16700276e+02
313             	3.16702410e+02
314             	3.16704599e+02
315             	3.16706813e+02
316             	3.16708979e+02
317             	3.16711123e+02
318             	3.16713230e+02
319             	3.16715215e+02
320             	3.16717177e+02
321             	3.16719208e+02
322             	3.16721300e+02
323             	3.16723384e+02
324             	3.16725431e+02
325             	3.16727389e+02
326             	3.16729095e+02
327             	3.16730777e+02
328             	3.16732280e+02
329             	3.16733469e+02
330             	3.16734343e+02
331             	3.16735128e+02
332             	3.16735870e+02
333             	3.16736708e+02
334             	3.16737694e+02
335             	3.16738826e+02
336             	3.16740093e+02
337             	3.16741449e+02
338             	3.16742901e+02
339             	3.16744333e+02
340             	3.16745831e+02
341             	3.16747274e+02
342             	3.16748695e+02
343             	3.16749925e+02
344             	3.16751219e+02
345             	3.16752389e+02
346             	3.16753595e+02
347             	3.16754910e+02
348             	3.16756325e+02
349             	3.16757825e+02
350             	3.16759388e+02
351             	3.16760947e+02
352             	3.16762449e+02
353             	3.16763953e+02
354             	3.16765235e+02
355             	3.16766472e+02
356             	3.16767748e+02
357             	3.16768789e+02
358             	3.16769723e+02
359             	3.16770702e+02
360             	3.16771694e+02
361             	3.16772717e+02
362             	3.16773792e+02
363             	3.16774963e+02
364             	3.16776186e+02
365             	3.16777449e+02
366             	3.16778764e+02
367             	3.16780089e+02
368             	3.16781347e+02
369             	3.16782572e+02
370             	3.16783713e+02
371             	3.16784743e+02
372             	3.16785826e+02
373             	3.16786747e+02
374             	3.16787601e+02
375             	3.16788467e+02
376             	3.16789383e+02
377             	3.16790353e+02
378             	3.16791340e+02
379             	3.16792290e+02
380             	3.16793231e+02
381             	3.16794182e+02
382             	3.16795147e+02
383             	3.16796121e+02
384             	3.16797087e+02
385             	3.16798083e+02
386             	3.16799039e+02
387             	3.16799965e+02
388             	3.16800849e+02
389             	3.16801687e+02
390             	3.16802487e+02
391             	3.16803247e+02
392             	3.16803973e+02
393             	3.16804695e+02
394             	3.16805422e+02
395             	3.16806159e+02
396             	3.16806906e+02
397             	3.16807639e+02
398             	3.16808408e+02
399             	3.16809217e+02
400             	3.16810060e+02
401             	3.16811020e+02
402             	3.16811895e+02
403             	3.16812763e+02
404             	3.16813670e+02
405             	3.16814609e+02
406             	3.16815543e+02
407             	3.16816454e+02
408             	3.16817321e+02
409             	3.16818168e+02
410             	3.16818982e+02
411             	3.16819714e+02
412             	3.16820333e+02
413             	3.16820982e+02
414             	3.16821572e+02
415             	3.16822059e+02
416             	3.16822442e+02
417             	3.16822785e+02
418             	3.16823109e+02
419             	3.16823511e+02
420             	3.16823823e+02
421             	3.16824169e+02
422             	3.16824598e+02
423             	3.16825107e+02
424             	3.16825676e+02
425             	3.16826310e+02
426             	3.16826992e+02
427             	3.16827699e+02
428             	3.16828425e+02
429             	3.16829150e+02
430             	3.16829782e+02
431             	3.16830444e+02
432             	3.16831041e+02
433             	3.16831599e+02
434             	3.16832069e+02
435             	3.16832455e+02
436             	3.16832775e+02
437             	3.16833058e+02
438             	3.16833326e+02
439             	3.16833599e+02
440             	3.16833895e+02
441             	3.16834223e+02
442             	3.16834701e+02
443             	3.16835144e+02
444             	3.16835640e+02
445             	3.16836212e+02
446             	3.16836842e+02
447             	3.16837504e+02
448             	3.16838185e+02
449             	3.16838880e+02
450             	3.16839541e+02
451             	3.16840149e+02
452             	3.16840712e+02
453             	3.16841186e+02
454             	3.16841586e+02
455             	3.16841930e+02
456             	3.16842223e+02
457             	3.16842464e+02
458             	3.16842661e+02
459             	3.16842855e+02
460             	3.16843057e+02
461             	3.16843271e+02
462             	3.16843505e+02
463             	3.16843761e+02
464             	3.16844054e+02
465             	3.16844373e+02
466             	3.16844730e+02
467             	3.16845074e+02
468             	3.16845492e+02
469             	3.16845899e+02
470             	3.16846321e+02
471             	3.16846758e+02
472             	3.16847197e+02
473             	3.16847641e+02
474             	3.16848105e+02
475             	3.16848562e+02
476             	3.16848966e+02
477             	3.16849339e+02
478             	3.16849689e+02
479             	3.16850023e+02
480             	3.16850337e+02
481             	3.16850627e+02
482             	3.16850897e+02
483             	3.16851109e+02
484             	3.16851335e+02
485             	3.16851502e+02
486             	3.16851666e+02
487             	3.16851806e+02
488             	3.16851931e+02
489             	3.16852055e+02
490             	3.16852190e+02
491             	3.16852354e+02
492             	3.16852533e+02
493             	3.16852732e+02
494             	3.16852948e+02
495             	3.16853182e+02
496             	3.16853422e+02
497             	3.16853659e+02
498             	3.16853909e+02
499             	3.16854136e+02
500             	3.16854344e+02
501             	3.16854537e+02
502             	3.16854719e+02
503             	3.16854887e+02
504             	3.16855034e+02
505             	3.16855164e+02
506             	3.16855280e+02
507             	3.16855392e+02
508             	3.16855501e+02
509             	3.16855612e+02
510             	3.16855723e+02
511             	3.16855840e+02
512             	3.16855995e+02
513             	3.16856149e+02
514             	3.16856311e+02
515             	3.16856478e+02
516             	3.16856639e+02
517             	3.16856843e+02
518             	3.16857057e+02
519             	3.16857270e+02
520             	3.16857483e+02
521             	3.16857695e+02
522             	3.16857855e+02
523             	3.16857989e+02
524             	3.16858120e+02
525             	3.16858224e+02
526             	3.16858311e+02
527             	3.16858388e+02
528             	3.16858469e+02
529             	3.16858562e+02
530             	3.16858667e+02
531             	3.16858807e+02
532             	3.16858983e+02
533             	3.16859180e+02
534             	3.16859394e+02
535             	3.16859621e+02
536             	3.16859845e+02
537             	3.16860081e+02
538             	3.16860312e+02
539             	3.16860540e+02
540             	3.16860765e+02
541             	3.16860989e+02
542             	3.16861202e+02
543             	3.16861398e+02
544             	3.16861592e+02
545             	3.16861776e+02
546             	3.16861943e+02
547             	3.16862098e+02
548             	3.16862236e+02
549             	3.16862358e+02
550             	3.16862470e+02
551             	3.16862573e+02
552             	3.16862667e+02
553             	3.16862749e+02
554             	3.16862808e+02
555             	3.16862898e+02
556             	3.16862988e+02
557             	3.16863066e+02
558             	3.16863141e+02
559             	3.16863216e+02
560             	3.16863287e+02
561             	3.16863353e+02
562             	3.16863423e+02
563             	3.16863494e+02
564             	3.16863574e+02
565             	3.16863673e+02
566             	3.16863778e+02
567             	3.16863918e+02
568             	3.16864059e+02
569             	3.16864206e+02
570             	3.16864359e+02
571             	3.16864485e+02
572             	3.16864619e+02
573             	3.16864757e+02
574             	3.16864881e+02
575             	3.16864989e+02
576             	3.16865110e+02
577             	3.16865198e+02
578             	3.16865269e+02
579             	3.16865358e+02
580             	3.16865461e+02
581             	3.16865574e+02
582             	3.16865703e+02
583             	3.16865856e+02
584             	3.16866007e+02
585             	3.16866156e+02
586             	3.16866295e+02
587             	3.16866425e+02
588             	3.16866516e+02
589             	3.16866560e+02
590             	3.16866584e+02
591             	3.16866592e+02
592             	3.16866610e+02
593             	3.16866606e+02
594             	3.16866606e+02
595             	3.16866623e+02
596             	3.16866678e+02
597             	3.16866782e+02
598             	3.16866907e+02
599             	3.16867046e+02
600             	3.16867191e+02
601             	3.16867319e+02
602             	3.16867414e+02
603             	3.16867507e+02
604             	3.16867575e+02
605             	3.16867596e+02
606             	3.16867605e+02
607             	3.16867598e+02
608             	3.16867610e+02
609             	3.16867608e+02
610             	3.16867609e+02
611             	3.16867639e+02
612             	3.16867678e+02
613             	3.16867737e+02
614             	3.16867815e+02
615             	3.16867909e+02
616             	3.16868019e+02
617             	3.16868143e+02
618             	3.16868276e+02
619             	3.16868417e+02
620             	3.16868561e+02
621             	3.16868699e+02
622             	3.16868825e+02
623             	3.16868940e+02
624             	3.16869045e+02
625             	3.16869137e+02
626             	3.16869199e+02
627             	3.16869241e+02
628             	3.16869274e+02
629             	3.16869311e+02
630             	3.16869342e+02
631             	3.16869376e+02
632             	3.16869421e+02
633             	3.16869479e+02
634             	3.16869548e+02
635             	3.16869630e+02
636             	3.16869721e+02
637             	3.16869822e+02
638             	3.16869930e+02
639             	3.16870043e+02
640             	3.16870158e+02
641             	3.16870268e+02
642             	3.16870366e+02
643             	3.16870448e+02
644             	3.16870512e+02
645             	3.16870557e+02
646             	3.16870576e+02
647             	3.16870568e+02
648             	3.16870548e+02
649             	3.16870513e+02
650             	3.16870470e+02
651             	3.16870407e+02
652             	3.16870335e+02
653             	3.16870262e+02
654             	3.16870195e+02
655             	3.16870137e+02
656             	3.16870095e+02
657             	3.16870075e+02
658             	3.16870081e+02
659             	3.16870113e+02
660             	3.16870162e+02
661             	3.16870235e+02
662             	3.16870337e+02
663             	3.16870454e+02
664             	3.16870574e+02
665             	3.16870687e+02
666             	3.16870792e+02
667             	3.16870891e+02
668             	3.16870985e+02
669             	3.16871073e+02
670             	3.16871156e+02
671             	3.16871234e+02
672             	3.16871308e+02
673             	3.16871382e+02
674             	3.16871455e+02
675             	3.16871525e+02
676             	3.16871589e+02
677             	3.16871646e+02
678             	3.16871701e+02
679             	3.16871750e+02
680             	3.16871795e+02
681             	3.16871836e+02
682             	3.16871871e+02
683             	3.16871899e+02
684             	3.16871920e+02
685             	3.16871951e+02
686             	3.16871988e+02
687             	3.16872023e+02
688             	3.16872052e+02
689             	3.16872073e+02
690             	3.16872084e+02
691             	3.16872089e+02
692             	3.16872084e+02
693             	3.16872070e+02
694             	3.16872045e+02
695             	3.16872010e+02
696             	3.16871968e+02
697             	3.16871923e+02
698             	3.16871875e+02
699             	3.16871827e+02
700             	3.16871780e+02
701             	3.16871739e+02
702             	3.16871708e+02
703             	3.16871688e+02
704             	3.16871683e+02
705             	3.16871691e+02
706             	3.16871712e+02
707             	3.16871762e+02
708             	3.16871831e+02
709             	3.16871902e+02
710             	3.16871980e+02
711             	3.16872061e+02
712             	3.16872141e+02
713             	3.16872218e+02
714             	3.16872289e+02
715             	3.16872351e+02
716             	3.16872408e+02
717             	3.16872460e+02
718             	3.16872511e+02
719             	3.16872561e+02
720             	3.16872611e+02
721             	3.16872659e+02
722             	3.16872707e+02
723             	3.16872760e+02
724             	3.16872800e+02
725             	3.16872829e+02
726             	3.16872852e+02
727             	3.16872867e+02
728             	3.16872872e+02
729             	3.16872865e+02
730             	3.16872847e+02
731             	3.16872820e+02
732             	3.16872790e+02
733             	3.16872762e+02
734             	3.16872733e+02
735             	3.16872703e+02
736             	3.16872671e+02
737             	3.16872635e+02
738             	3.16872597e+02
739             	3.16872554e+02
740             	3.16872507e+02
741             	3.16872455e+02
742             	3.16872408e+02
743             	3.16872368e+02
744             	3.16872320e+02
745             	3.16872287e+02
746             	3.16872265e+02
747             	3.16872250e+02
748             	3.16872247e+02
749             	3.16872278e+02
750             	3.16872314e+02
751             	3.16872350e+02
752             	3.16872405e+02
753             	3.16872480e+02
754             	3.16872568e+02
755             	3.16872667e+02
756             	3.16872772e+02
757             	3.16872880e+02
758             	3.16872986e+02
759             	3.16873090e+02
760             	3.16873188e+02
761             	3.16873274e+02
762             	3.16873345e+02
763             	3.16873401e+02
764             	3.16873435e+02
765             	3.16873447e+02
766             	3.16873438e+02
767             	3.16873406e+02
768             	3.16873355e+02
769             	3.16873293e+02
770             	3.16873221e+02
771             	3.16873139e+02
772             	3.16873051e+02
773             	3.16872958e+02
774             	3.16872866e+02
775             	3.16872773e+02
776             	3.16872682e+02
777             	3.16872594e+02
778             	3.16872508e+02
779             	3.16872434e+02
780             	3.16872372e+02
781             	3.16872320e+02
782             	3.16872275e+02
783             	3.16872239e+02
784             	3.16872211e+02
785             	3.16872191e+02
786             	3.16872177e+02
787             	3.16872170e+02
788             	3.16872170e+02
789             	3.16872165e+02
790             	3.16872170e+02
791             	3.16872182e+02
792             	3.16872201e+02
793             	3.16872223e+02
794             	3.16872249e+02
795             	3.16872278e+02
796             	3.16872308e+02
797             	3.16872340e+02
798             	3.16872372e+02
799             	3.16872403e+02
800             	3.16872438e+02
801             	3.16872471e+02
802             	3.16872499e+02
803             	3.16872530e+02
804             	3.16872565e+02
805             	3.16872605e+02
806             	3.16872648e+02
807             	3.16872676e+02
808             	3.16872714e+02
809             	3.16872749e+02
810             	3.16872770e+02
811             	3.16872777e+02
812             	3.16872772e+02
813             	3.16872757e+02
814             	3.16872734e+02
815             	3.16872690e+02
816             	3.16872638e+02
817             	3.16872585e+02
818             	3.16872532e+02
819             	3.16872474e+02
820             	3.16872420e+02
821             	3.16872369e+02
822             	3.16872329e+02
823             	3.16872288e+02
824             	3.16872253e+02
825             	3.16872227e+02
826             	3.16872205e+02
827             	3.16872182e+02
828             	3.16872149e+02
829             	3.16872119e+02
830             	3.16872081e+02
831             	3.16872037e+02
832             	3.16871997e+02
833             	3.16871966e+02
834             	3.16871941e+02
835             	3.16871925e+02
836             	3.16871926e+02
837             	3.16871968e+02
838             	3.16872007e+02
839             	3.16872054e+02
840             	3.16872124e+02
841             	3.16872211e+02
842             	3.16872311e+02
843             	3.16872421e+02
844             	3.16872539e+02
845             	3.16872659e+02
846             	3.16872772e+02
847             	3.16872878e+02
848             	3.16872972e+02
849             	3.16873049e+02
850             	3.16873105e+02
851             	3.16873138e+02
852             	3.16873148e+02
853             	3.16873134e+02
854             	3.16873099e+02
855             	3.16873046e+02
856             	3.16872987e+02
857             	3.16872916e+02
858             	3.16872843e+02
859             	3.16872770e+02
860             	3.16872704e+02
861             	3.16872644e+02
862             	3.16872593e+02
863             	3.16872547e+02
864             	3.16872509e+02
865             	3.16872476e+02
866             	3.16872446e+02
867             	3.16872419e+02
868             	3.16872400e+02
869             	3.16872381e+02
870             	3.16872361e+02
871             	3.16872342e+02
872             	3.16872330e+02
873             	3.16872324e+02
874             	3.16872322e+02
875             	3.16872323e+02
876             	3.16872325e+02
877             	3.16872330e+02
878             	3.16872334e+02
879             	3.16872341e+02
880             	3.16872337e+02
881             	3.16872319e+02
882             	3.16872292e+02
883             	3.16872274e+02
884             	3.16872246e+02
885             	3.16872220e+02
886             	3.16872212e+02
887             	3.16872226e+02
888             	3.16872257e+02
889             	3.16872306e+02
890             	3.16872374e+02
891             	3.16872432e+02
892             	3.16872510e+02
893             	3.16872593e+02
894             	3.16872669e+02
895             	3.16872734e+02
896             	3.16872784e+02
897             	3.16872814e+02
898             	3.16872821e+02
899             	3.16872803e+02
900             	3.16872763e+02
901             	3.16872713e+02
902             	3.16872651e+02
903             	3.16872574e+02
904             	3.16872504e+02
905             	3.16872438e+02
906             	3.16872375e+02
907             	3.16872310e+02
908             	3.16872242e+02
909             	3.16872175e+02
910             	3.16872114e+02
911             	3.16872054e+02
912             	3.16872000e+02
913             	3.16871954e+02
914             	3.16871919e+02
915             	3.16871903e+02
916             	3.16871894e+02
917             	3.16871896e+02
918             	3.16871912e+02
919             	3.16871936e+02
920             	3.16871975e+02
921             	3.16872024e+02
922             	3.16872078e+02
923             	3.16872143e+02
924             	3.16872212e+02
925             	3.16872268e+02
926             	3.16872319e+02
927             	3.16872369e+02
928             	3.16872419e+02
929             	3.16872479e+02
930             	3.16872545e+02
931             	3.16872614e+02
932             	3.16872686e+02
933             	3.16872761e+02