# Region        : cellZone pcb
# Cells         : 605
# Volume        : 1.06828170e+00
# Time          	volAverage(T)
1               	3.00006831e+02
2               	3.00019834e+02
3               	3.00038175e+02
4               	3.00062113e+02
5               	3.00088347e+02
6               	3.00117998e+02
7               	3.00151808e+02
8               	3.00189595e+02
9               	3.00231135e+02
10              	3.00277235e+02
11              	3.00326728e+02
12              	3.00381346e+02
13              	3.00437268e+02
14              	3.00498008e+02
15              	3.00561420e+02
16              	3.00625825e+02
17              	3.00690818e+02
18              	3.00760022e+02
19              	3.00830831e+02
20              	3.00903735e+02
21              	3.00975570e+02
22              	3.01051575e+02
23              	3.01133354e+02
24              	3.01215478e+02
25              	3.01299251e+02
26              	3.01384222e+02
27              	3.01474055e+02
28              	3.01561642e+02
29              	3.01652272e+02
30              	3.01748271e+02
31              	3.01848269e+02
32              	3.01947895e+02
33              	3.02046908e+02
34              	3.02140613e+02
35              	3.02232673e+02
36              	3.02328699e+02
37              	3.02425637e+02
38              	3.02523838e+02
39              	3.02626787e+02
40              	3.02729119e+02
41              	3.02837138e+02
42              	3.02947786e+02
43              	3.03054356e+02
44              	3.03165611e+02
45              	3.03284075e+02
46              	3.03404798e+02
47              	3.03514580e+02
48              	3.03619794e+02
49              	3.03723390e+02
50              	3.03822157e+02
51              	3.03924354e+02
52              	3.04032833e+02
53              	3.04142970e+02
54              	3.04250190e+02
55              	3.04360078e+02
56              	3.04475514e+02
57              	3.04591299e+02
58              	3.04703067e+02
59              	3.04821161e+02
60              	3.04945949e+02
61              	3.05076151e+02
62              	3.05192907e+02
63              	3.05298812e+02
64              	3.05403627e+02
65              	3.05514048e+02
66              	3.05633333e+02
67              	3.05760259e+02
68              	3.05877535e+02
69              	3.06003331e+02
70              	3.06125550e+02
71              	3.06245737e+02
72              	3.06357404e+02
73              	3.06468558e+02
74              	3.06587338e+02
75              	3.06701836e+02
76              	3.06818164e+02
77              	3.06941064e+02
78              	3.07061374e+02
79              	3.07172122e+02
80              	3.07285490e+02
81              	3.07402917e+02
82              	3.07511095e+02
83              	3.07624985e+02
84              	3.07738439e+02
85              	3.07855949e+02
86              	3.07972821e+02
87              	3.08089241e+02
88              	3.08207990e+02
89              	3.08331236e+02
90              	3.08456875e+02
91              	3.08582840e+02
92              	3.08704600e+02
93              	3.08826346e+02
94              	3.08942746e+02
95              	3.09052889e+02
96              	3.09160969e+02
97              	3.09270619e+02
98              	3.09383753e+02
99              	3.09498517e+02
100             	3.09612647e+02
101             	3.09727816e+02
102             	3.09843119e+02
103             	3.09955212e+02
104             	3.10065285e+02
105             	3.10176418e+02
106             	3.10287096e+02
107             	3.10396156e+02
108             	3.10505513e+02
109             	3.10615302e+02
110             	3.10726565e+02
111             	3.10837470e+02
112             	3.10947289e+02
113             	3.11057319e+02
114             	3.11169152e+02
115             	3.11280972e+02
116             	3.11391758e+02
117             	3.11499826e+02
118             	3.11606868e+02
119             	3.11713219e+02
120             	3.11818853e+02
121             	3.11922086e+02
122             	3.12025195e+02
123             	3.12128813e+02
124             	3.12232401e+02
125             	3.12335185e+02
126             	3.12437100e+02
127             	3.12538783e+02
128             	3.12640062e+02
129             	3.12741253e+02
130             	3.12842392e+02
131             	3.12943475e+02
132             	3.13044625e+02
133             	3.13145892e+02
134             	3.13247064e+02
135             	3.13347231e+02
136             	3.13445954e+02
137             	3.13543507e+02
138             	3.13640612e+02
139             	3.13737050e+02
140             	3.13832894e+02
141             	3.13928104e+02
142             	3.14022611e+02
143             	3.14116865e+02
144             	3.14210154e+02
145             	3.14302110e+02
146             	3.14393140e+02
147             	3.14483916e+02
148             	3.14573467e+02
149             	3.14661745e+02
150             	3.14749393e+02
151             	3.14836646e+02
152             	3.14923779e+02
153             	3.15010774e+02
154             	3.15097054e+02
155             	3.15183539e+02
156             	3.15270017e+02
157             	3.15355845e+02
158             	3.15441080e+02
159             	3.15525329e+02
160             	3.15609224e+02
161             	3.15692521e+02
162             	3.15774946e+02
163             	3.15856590e+02
164             	3.15937604e+02
165             	3.16018326e+02
166             	3.16098040e+02
167             	3.16176980e+02
168             	3.16255402e+02
169             	3.16333305e+02
170             	3.16410878e+02
171             	3.16488163e+02
172             	3.16565164e+02
173             	3.16641587e+02
174             	3.16717543e+02
175             	3.16793035e+02
176             	3.16868260e+02
177             	3.16942684e+02
178             	3.17016268e+02
179             	3.17089420e+02
180             	3.17162110e+02
181             	3.17233975e+02
182             	3.17305214e+02
183             	3.17375588e+02
184             	3.17445570e+02
185             	3.17515209e+02
186             	3.17584215e+02
187             	3.17652766e+02
188             	3.17721058e+02
189             	3.17788927e+02
190             	3.17856237e+02
191             	3.17923069e+02
192             	3.17989532e+02
193             	3.18055754e+02
194             	3.18121520e+02
195             	3.18186588e+02
196             	3.18251318e+02
197             	3.18315518e+02
198             	3.18379175e+02
199             	3.18442249e+02
200             	3.18504840e+02
201             	3.18566946e+02
202             	3.18628178e+02
203             	3.18688889e+02
204             	3.18749194e+02
205             	3.18809080e+02
206             	3.18868695e+02
207             	3.18927950e+02
208             	3.18986874e+02
209             	3.19045268e+02
210             	3.19103492e+02
211             	3.19161255e+02
212             	3.19218528e+02
213             	3.19275336e+02
214             	3.19331637e+02
215             	3.19387428e+02
216             	3.19442732e+02
217             	3.19497601e+02
218             	3.19552113e+02
219             	3.19606262e+02
220             	3.19659978e+02
221             	3.19713300e+02
222             	3.19766206e+02
223             	3.19818759e+02
224             	3.19870954e+02
225             	3.19922792e+02
226             	3.19974284e+02
227             	3.20025425e+02
228             	3.20076244e+02
229             	3.20126705e+02
230             	3.20176736e+02
231             	3.20226431e+02
232             	3.20275628e+02
233             	3.20324477e+02
234             	3.20372973e+02
235             	3.20421070e+02
236             	3.20468783e+02
237             	3.20516070e+02
238             	3.20562963e+02
239             	3.20609525e+02
240             	3.20655754e+02
241             	3.20701786e+02
242             	3.20747380e+02
243             	3.20792588e+02
244             	3.20837436e+02
245             	3.20882007e+02
246             	3.20926255e+02
247             	3.20970196e+02
248             	3.21013806e+02
249             	3.21057132e+02
250             	3.21100201e+02
251             	3.21143006e+02
252             	3.21185499e+02
253             	3.21227675e+02
254             	3.21269571e+02
255             	3.21311171e+02
256             	3.21352473e+02
257             	3.21393388e+02
258             	3.21434075e+02
259             	3.21474475e+02
260             	3.21514561e+02
261             	3.21554297e+02
262             	3.21593698e+02
263             	3.21632833e+02
264             	3.21671664e+02
265             	3.21710182e+02
266             	3.21748425e+02
267             	3.21786399e+02
268             	3.21824085e+02
269             	3.21861475e+02
270             	3.21898596e+02
271             	3.21935505e+02
272             	3.21972186e+02
273             	3.22008629e+02
274             	3.22044847e+02
275             	3.22080838e+02
276             	3.22116559e+02
277             	3.22152047e+02
278             	3.22187283e+02
279             	3.22222264e+02
280             	3.22256996e+02
281             	3.22291494e+02
282             	3.22325766e+02
283             	3.22359758e+02
284             	3.22393545e+02
285             	3.22427119e+02
286             	3.22460468e+02
287             	3.22493575e+02
288             	3.22526435e+02
289             	3.22559032e+02
290             	3.22591376e+02
291             	3.22623508e+02
292             	3.22655402e+02
293             	3.22687061e+02
294             	3.22718502e+02
295             	3.22749726e+02
296             	3.22780737e+02
297             	3.22811517e+02
298             	3.22842091e+02
299             	3.22872432e+02
300             	3.22902584e+02
301             	3.22932593e+02
302             	3.22962386e+02
303             	3.22992003e+02
304             	3.23021460e+02
305             	3.23050813e+02
306             	3.23079952e+02
307             	3.23108850e+02
308             	3.23137564e+02
309             	3.23166122e+02
310             	3.23194510e+02
311             	3.23222691e+02
312             	3.23250712e+02
313             	3.23278543e+02
314             	3.23306224e+02
315             	3.23333706e+02
316             	3.23360998e+02
317             	3.23388132e+02
318             	3.23415084e+02
319             	3.23441856e+02
320             	3.23468452e+02
321             	3.23494868e+02
322             	3.23521101e+02
323             	3.23547133e+02
324             	3.23573022e+02
325             	3.23598767e+02
326             	3.23624315e+02
327             	3.23649689e+02
328             	3.23674938e+02
329             	3.23700044e+02
330             	3.23724988e+02
331             	3.23749777e+02
332             	3.23774405e+02
333             	3.23798889e+02
334             	3.23823227e+02
335             	3.23847425e+02
336             	3.23871498e+02
337             	3.23895435e+02
338             	3.23919237e+02
339             	3.23942960e+02
340             	3.23966519e+02
341             	3.23989916e+02
342             	3.24013169e+02
343             	3.24036293e+02
344             	3.24059293e+02
345             	3.24082160e+02
346             	3.24104882e+02
347             	3.24127488e+02
348             	3.24149980e+02
349             	3.24172350e+02
350             	3.24194598e+02
351             	3.24216723e+02
352             	3.24238723e+02
353             	3.24260532e+02
354             	3.24282255e+02
355             	3.24303883e+02
356             	3.24325374e+02
357             	3.24346701e+02
358             	3.24367868e+02
359             	3.24388928e+02
360             	3.24409879e+02
361             	3.24430734e+02
362             	3.24451443e+02
363             	3.24472058e+02
364             	3.24492536e+02
365             	3.24512886e+02
366             	3.24533106e+02
367             	3.24553238e+02
368             	3.24573296e+02
369             	3.24593254e+02
370             	3.24613107e+02
371             	3.24632857e+02
372             	3.24652505e+02
373             	3.24672042e+02
374             	3.24691484e+02
375             	3.24710812e+02
376             	3.24730057e+02
377             	3.24749224e+02
378             	3.24768281e+02
379             	3.24787246e+02
380             	3.24806125e+02
381             	3.24824908e+02
382             	3.24843595e+02
383             	3.24862170e+02
384             	3.24880653e+02
385             	3.24899069e+02
386             	3.24917386e+02
387             	3.24935607e+02
388             	3.24953741e+02
389             	3.24971774e+02
390             	3.24989719e+02
391             	3.25007577e+02
392             	3.25025357e+02
393             	3.25043061e+02
394             	3.25060674e+02
395             	3.25078175e+02
396             	3.25095594e+02
397             	3.25112924e+02
398             	3.25130169e+02
399             	3.25147324e+02
400             	3.25164384e+02
401             	3.25181338e+02
402             	3.25198219e+02
403             	3.25215018e+02
404             	3.25231745e+02
405             	3.25248410e+02
406             	3.25264995e+02
407             	3.25281502e+02
408             	3.25297939e+02
409             	3.25314301e+02
410             	3.25330592e+02
411             	3.25346813e+02
412             	3.25362963e+02
413             	3.25379018e+02
414             	3.25394984e+02
415             	3.25410875e+02
416             	3.25426709e+02
417             	3.25442504e+02
418             	3.25458214e+02
419             	3.25473849e+02
420             	3.25489407e+02
421             	3.25504914e+02
422             	3.25520366e+02
423             	3.25535758e+02
424             	3.25551077e+02
425             	3.25566321e+02
426             	3.25581502e+02
427             	3.25596618e+02
428             	3.25611666e+02
429             	3.25626639e+02
430             	3.25641572e+02
431             	3.25656457e+02
432             	3.25671278e+02
433             	3.25686011e+02
434             	3.25700678e+02
435             	3.25715297e+02
436             	3.25729864e+02
437             	3.25744371e+02
438             	3.25758814e+02
439             	3.25773196e+02
440             	3.25787513e+02
441             	3.25801767e+02
442             	3.25815965e+02
443             	3.25830104e+02
444             	3.25844195e+02
445             	3.25858225e+02
446             	3.25872204e+02
447             	3.25886121e+02
448             	3.25899989e+02
449             	3.25913802e+02
450             	3.25927561e+02
451             	3.25941266e+02
452             	3.25954922e+02
453             	3.25968521e+02
454             	3.25982066e+02
455             	3.25995556e+02
456             	3.26008993e+02
457             	3.26022354e+02
458             	3.26035671e+02
459             	3.26048913e+02
460             	3.26062113e+02
461             	3.26075284e+02
462             	3.26088413e+02
463             	3.26101498e+02
464             	3.26114547e+02
465             	3.26127558e+02
466             	3.26140523e+02
467             	3.26153415e+02
468             	3.26166256e+02
469             	3.26179061e+02
470             	3.26191820e+02
471             	3.26204549e+02
472             	3.26217226e+02
473             	3.26229864e+02
474             	3.26242456e+02
475             	3.26254999e+02
476             	3.26267504e+02
477             	3.26279974e+02
478             	3.26292399e+02
479             	3.26304773e+02
480             	3.26317098e+02
481             	3.26329382e+02
482             	3.26341631e+02
483             	3.26353838e+02
484             	3.26366002e+02
485             	3.26378135e+02
486             	3.26390227e+02
487             	3.26402276e+02
488             	3.26414292e+02
489             	3.26426277e+02
490             	3.26438231e+02
491             	3.26450115e+02
492             	3.26461975e+02
493             	3.26473768e+02
494             	3.26485533e+02
495             	3.26497276e+02
496             	3.26508979e+02
497             	3.26520639e+02
498             	3.26532265e+02
499             	3.26543857e+02
500             	3.26555422e+02
501             	3.26566965e+02
502             	3.26578487e+02
503             	3.26589970e+02
504             	3.26601426e+02
505             	3.26612837e+02
506             	3.26624206e+02
507             	3.26635542e+02
508             	3.26646845e+02
509             	3.26658107e+02
510             	3.26669335e+02
511             	3.26680549e+02
512             	3.26691733e+02
513             	3.26702887e+02
514             	3.26714016e+02
515             	3.26725117e+02
516             	3.26736187e+02
517             	3.26747201e+02
518             	3.26758183e+02
519             	3.26769122e+02
520             	3.26780033e+02
521             	3.26790920e+02
522             	3.26801778e+02
523             	3.26812605e+02
524             	3.26823406e+02
525             	3.26834181e+02
526             	3.26844933e+02
527             	3.26855663e+02
528             	3.26866373e+02
529             	3.26877060e+02
530             	3.26887724e+02
531             	3.26898353e+02
532             	3.26908961e+02
533             	3.26919549e+02
534             	3.26930114e+02
535             	3.26940651e+02
536             	3.26951162e+02
537             	3.26961643e+02
538             	3.26972096e+02
539             	3.26982506e+02
540             	3.26992904e+02
541             	3.27003290e+02
542             	3.27013651e+02
543             	3.27023985e+02
544             	3.27034295e+02
545             	3.27044580e+02
546             	3.27054845e+02
547             	3.27065069e+02
548             	3.27075281e+02
549             	3.27085479e+02
550             	3.27095654e+02
551             	3.27105807e+02
552             	3.27115937e+02
553             	3.27126042e+02
554             	3.27136125e+02
555             	3.27146188e+02
556             	3.27156232e+02
557             	3.27166250e+02
558             	3.27176249e+02
559             	3.27186232e+02
560             	3.27196201e+02
561             	3.27206146e+02
562             	3.27216077e+02
563             	3.27225990e+02
564             	3.27235890e+02
565             	3.27245772e+02
566             	3.27255634e+02
567             	3.27265480e+02
568             	3.27275308e+02
569             	3.27285121e+02
570             	3.27294924e+02
571             	3.27304680e+02
572             	3.27314427e+02
573             	3.27324169e+02
574             	3.27333890e+02
575             	3.27343589e+02
576             	3.27353266e+02
577             	3.27362925e+02
578             	3.27372569e+02
579             	3.27382196e+02
580             	3.27391816e+02
581             	3.27401402e+02
582             	3.27410989e+02
583             	3.27420569e+02
584             	3.27430132e+02
585             	3.27439674e+02
586             	3.27449197e+02
587             	3.27458704e+02
588             	3.27468197e+02
589             	3.27477674e+02
590             	3.27487135e+02
591             	3.27496581e+02
592             	3.27506014e+02
593             	3.27515438e+02
594             	3.27524849e+02
595             	3.27534244e+02
596             	3.27543633e+02
597             	3.27552991e+02
598             	3.27562342e+02
599             	3.27571691e+02
600             	3.27581027e+02
601             	3.27590353e+02
602             	3.27599667e+02
603             	3.27608973e+02
604             	3.27618272e+02
605             	3.27627560e+02
606             	3.27636840e+02
607             	3.27646106e+02
608             	3.27655360e+02
609             	3.27664586e+02
610             	3.27673808e+02
611             	3.27683031e+02
612             	3.27692243e+02
613             	3.27701429e+02
614             	3.27710611e+02
615             	3.27719787e+02
616             	3.27728950e+02
617             	3.27738098e+02
618             	3.27747234e+02
619             	3.27756345e+02
620             	3.27765468e+02
621             	3.27774593e+02
622             	3.27783710e+02
623             	3.27792810e+02
624             	3.27801882e+02
625             	3.27810936e+02
626             	3.27819976e+02
627             	3.27829004e+02
628             	3.27838016e+02
629             	3.27847015e+02
630             	3.27856006e+02
631             	3.27864994e+02
632             	3.27873981e+02
633             	3.27882986e+02
634             	3.27891992e+02
635             	3.27900976e+02
636             	3.27909948e+02
637             	3.27918909e+02
638             	3.27927867e+02
639             	3.27936826e+02
640             	3.27945778e+02
641             	3.27954717e+02
642             	3.27963646e+02
643             	3.27972569e+02
644             	3.27981487e+02
645             	3.27990383e+02
646             	3.27999273e+02
647             	3.28008168e+02
648             	3.28017061e+02
649             	3.28025948e+02
650             	3.28034815e+02
651             	3.28043680e+02
652             	3.28052550e+02
653             	3.28061414e+02
654             	3.28070270e+02
655             	3.28079116e+02
656             	3.28087949e+02
657             	3.28096774e+02
658             	3.28105598e+02
659             	3.28114411e+02
660             	3.28123216e+02
661             	3.28132020e+02
662             	3.28140823e+02
663             	3.28149625e+02
664             	3.28158425e+02
665             	3.28167222e+02
666             	3.28176015e+02
667             	3.28184772e+02
668             	3.28193539e+02
669             	3.28202317e+02
670             	3.28211094e+02
671             	3.28219859e+02
672             	3.28228591e+02
673             	3.28237323e+02
674             	3.28246058e+02
675             	3.28254790e+02
676             	3.28263510e+02
677             	3.28272221e+02
678             	3.28280928e+02
679             	3.28289640e+02
680             	3.28298354e+02
681             	3.28307067e+02
682             	3.28315778e+02
683             	3.28324489e+02
684             	3.28333181e+02
685             	3.28341870e+02
686             	3.28350568e+02
687             	3.28359255e+02
688             	3.28367938e+02
689             	3.28376613e+02
690             	3.28385283e+02
691             	3.28393950e+02
692             	3.28402613e+02
693             	3.28411268e+02
694             	3.28419923e+02
695             	3.28428546e+02
696             	3.28437180e+02
697             	3.28445827e+02
698             	3.28454470e+02
699             	3.28463102e+02
700             	3.28471712e+02
701             	3.28480322e+02
702             	3.28488929e+02
703             	3.28497535e+02
704             	3.28506136e+02
705             	3.28514731e+02
706             	3.28523326e+02
707             	3.28531925e+02
708             	3.28540525e+02
709             	3.28549110e+02
710             	3.28557698e+02
711             	3.28566286e+02
712             	3.28574849e+02
713             	3.28583410e+02
714             	3.28591974e+02
715             	3.28600530e+02
716             	3.28609081e+02
717             	3.28617632e+02
718             	3.28626173e+02
719             	3.28634704e+02
720             	3.28643227e+02
721             	3.28651745e+02
722             	3.28660260e+02
723             	3.28668770e+02
724             	3.28677282e+02
725             	3.28685790e+02
726             	3.28694284e+02
727             	3.28702766e+02
728             	3.28711258e+02
729             	3.28719752e+02
730             	3.28728243e+02
731             	3.28736724e+02
732             	3.28745198e+02
733             	3.28753667e+02
734             	3.28762131e+02
735             	3.28770588e+02
736             	3.28779038e+02
737             	3.28787481e+02
738             	3.28795909e+02
739             	3.28804334e+02
740             	3.28812759e+02
741             	3.28821184e+02
742             	3.28829602e+02
743             	3.28838012e+02
744             	3.28846418e+02
745             	3.28854820e+02
746             	3.28863219e+02
747             	3.28871611e+02
748             	3.28879997e+02
749             	3.28888377e+02
750             	3.28896753e+02
751             	3.28905126e+02
752             	3.28913495e+02
753             	3.28921860e+02
754             	3.28930224e+02
755             	3.28938584e+02
756             	3.28946937e+02
757             	3.28955283e+02
758             	3.28963619e+02
759             	3.28971928e+02
760             	3.28980236e+02
761             	3.28988544e+02
762             	3.28996841e+02
763             	3.29005126e+02
764             	3.29013404e+02
765             	3.29021680e+02
766             	3.29029950e+02
767             	3.29038213e+02
768             	3.29046471e+02
769             	3.29054719e+02
770             	3.29062969e+02
771             	3.29071215e+02
772             	3.29079445e+02
773             	3.29087670e+02
774             	3.29095889e+02
775             	3.29104083e+02
776             	3.29112270e+02
777             	3.29120455e+02
778             	3.29128630e+02
779             	3.29136795e+02
780             	3.29144951e+02
781             	3.29153101e+02
782             	3.29161244e+02
783             	3.29169392e+02
784             	3.29177533e+02
785             	3.29185666e+02
786             	3.29193793e+02
787             	3.29201908e+02
788             	3.29210015e+02
789             	3.29218111e+02
790             	3.29226198e+02
791             	3.29234271e+02
792             	3.29242339e+02
793             	3.29250393e+02
794             	3.29258439e+02
795             	3.29266479e+02
796             	3.29274511e+02
797             	3.29282533e+02
798             	3.29290544e+02
799             	3.29298544e+02
800             	3.29306535e+02
801             	3.29314517e+02
802             	3.29322485e+02
803             	3.29330444e+02
804             	3.29338395e+02
805             	3.29346336e+02
806             	3.29354272e+02
807             	3.29362197e+02
808             	3.29370114e+02
809             	3.29378018e+02
810             	3.29385891e+02
811             	3.29393753e+02
812             	3.29401616e+02
813             	3.29409474e+02
814             	3.29417327e+02
815             	3.29425169e+02
816             	3.29432998e+02
817             	3.29440813e+02
818             	3.29448614e+02
819             	3.29456404e+02
820             	3.29464183e+02
821             	3.29471950e+02
822             	3.29479705e+02
823             	3.29487452e+02
824             	3.29495190e+02
825             	3.29502917e+02
826             	3.29510631e+02
827             	3.29518333e+02
828             	3.29526023e+02
829             	3.29533700e+02
830             	3.29541363e+02
831             	3.29549014e+02
832             	3.29556654e+02
833             	3.29564283e+02
834             	3.29571903e+02
835             	3.29579513e+02
836             	3.29587113e+02
837             	3.29594694e+02
838             	3.29602266e+02
839             	3.29609828e+02
840             	3.29617377e+02
841             	3.29624910e+02
842             	3.29632435e+02
843             	3.29639949e+02
844             	3.29647449e+02
845             	3.29654936e+02
846             	3.29662408e+02
847             	3.29669868e+02
848             	3.29677313e+02
849             	3.29684746e+02
850             	3.29692168e+02
851             	3.29699578e+02
852             	3.29706977e+02
853             	3.29714361e+02
854             	3.29721731e+02
855             	3.29729085e+02
856             	3.29736425e+02
857             	3.29743753e+02
858             	3.29751069e+02
859             	3.29758373e+02
860             	3.29765665e+02
861             	3.29772944e+02
862             	3.29780209e+02
863             	3.29787462e+02
864             	3.29794701e+02
865             	3.29801926e+02
866             	3.29809139e+02
867             	3.29816338e+02
868             	3.29823516e+02
869             	3.29830681e+02
870             	3.29837834e+02
871             	3.29844956e+02
872             	3.29852068e+02
873             	3.29859173e+02
874             	3.29866266e+02
875             	3.29873340e+02
876             	3.29880396e+02
877             	3.29887435e+02
878             	3.29894454e+02
879             	3.29901456e+02
880             	3.29908443e+02
881             	3.29915411e+02
882             	3.29922363e+02
883             	3.29929300e+02
884             	3.29936223e+02
885             	3.29943125e+02
886             	3.29950015e+02
887             	3.29956892e+02
888             	3.29963753e+02
889             	3.29970593e+02
890             	3.29977419e+02
891             	3.29984244e+02
892             	3.29991049e+02
893             	3.29997830e+02
894             	3.30004595e+02
895             	3.30011347e+02
896             	3.30018086e+02
897             	3.30024811e+02
898             	3.30031525e+02
899             	3.30038227e+02
900             	3.30044914e+02
901             	3.30051585e+02
902             	3.30058241e+02
903             	3.30064879e+02
904             	3.30071500e+02
905             	3.30078105e+02
906             	3.30084695e+02
907             	3.30091271e+02
908             	3.30097821e+02
909             	3.30104359e+02
910             	3.30110885e+02
911             	3.30117393e+02
912             	3.30123881e+02
913             	3.30130348e+02
914             	3.30136800e+02
915             	3.30143234e+02
916             	3.30149650e+02
917             	3.30156051e+02
918             	3.30162435e+02
919             	3.30168804e+02
920             	3.30175159e+02
921             	3.30181499e+02
922             	3.30187825e+02
923             	3.30194136e+02
924             	3.30200430e+02
925             	3.30206704e+02
926             	3.30212952e+02
927             	3.30219183e+02
928             	3.30225393e+02
929             	3.30231582e+02
930             	3.30237757e+02
931             	3.30243918e+02
932             	3.30250063e+02
933             	3.30256192e+02