# Region        : cellZone pcb
# Cells         : 684
# Volume        : 1.32705159e+00
# Time          	volAverage(T)
1               	3.00004261e+02
2               	3.00012694e+02
3               	3.00024691e+02
4               	3.00039644e+02
5               	3.00056213e+02
6               	3.00074519e+02
7               	3.00094850e+02
8               	3.00117550e+02
9               	3.00143589e+02
10              	3.00170378e+02
11              	3.00198393e+02
12              	3.00227458e+02
13              	3.00257582e+02
14              	3.00289456e+02
15              	3.00321728e+02
16              	3.00355273e+02
17              	3.00390423e+02
18              	3.00426720e+02
19              	3.00464406e+02
20              	3.00503550e+02
21              	3.00542675e+02
22              	3.00582445e+02
23              	3.00622717e+02
24              	3.00662304e+02
25              	3.00702796e+02
26              	3.00743486e+02
27              	3.00785631e+02
28              	3.00828694e+02
29              	3.00871606e+02
30              	3.00915741e+02
31              	3.00960595e+02
32              	3.01006032e+02
33              	3.01050569e+02
34              	3.01094847e+02
35              	3.01140709e+02
36              	3.01187004e+02
37              	3.01233224e+02
38              	3.01278736e+02
39              	3.01323324e+02
40              	3.01367738e+02
41              	3.01412137e+02
42              	3.01456097e+02
43              	3.01500575e+02
44              	3.01545205e+02
45              	3.01590006e+02
46              	3.01635494e+02
47              	3.01681477e+02
48              	3.01726756e+02
49              	3.01773179e+02
50              	3.01818982e+02
51              	3.01862312e+02
52              	3.01906186e+02
53              	3.01951107e+02
54              	3.01996282e+02
55              	3.02041592e+02
56              	3.02085313e+02
57              	3.02127636e+02
58              	3.02169354e+02
59              	3.02209411e+02
60              	3.02250027e+02
61              	3.02292159e+02
62              	3.02333228e+02
63              	3.02371437e+02
64              	3.02409759e+02
65              	3.02450317e+02
66              	3.02490421e+02
67              	3.02530148e+02
68              	3.02568983e+02
69              	3.02608109e+02
70              	3.02646819e+02
71              	3.02679698e+02
72              	3.02704534e+02
73              	3.02725491e+02
74              	3.02758084e+02
75              	3.02772437e+02
76              	3.02778326e+02
77              	3.02808272e+02
78              	3.02853764e+02
79              	3.02903473e+02
80              	3.02929629e+02
81              	3.02921898e+02
82              	3.02925412e+02
83              	3.02951664e+02
84              	3.02991413e+02
85              	3.03016327e+02
86              	3.03033282e+02
87              	3.03069427e+02
88              	3.03111891e+02
89              	3.03136981e+02
90              	3.03133933e+02
91              	3.03144109e+02
92              	3.03160049e+02
93              	3.03181321e+02
94              	3.03187840e+02
95              	3.03178243e+02
96              	3.03188506e+02
97              	3.03198536e+02
98              	3.03203799e+02
99              	3.03212424e+02
100             	3.03182782e+02
101             	3.03107610e+02
102             	3.03096350e+02
103             	3.03104751e+02
104             	3.03087894e+02
105             	3.02975712e+02
106             	3.02885845e+02
107             	3.02922256e+02
108             	3.02853663e+02
109             	3.03139405e+02
110             	3.03405986e+02
111             	3.03855391e+02
112             	3.03807711e+02
113             	3.03151081e+02
114             	3.02851317e+02
115             	3.02710265e+02
116             	3.02939728e+02
117             	3.04830474e+02
118             	3.00936502e+02
119             	3.20508201e+02
120             	4.11889231e+02
121             	5.76593333e+02
122             	1.34399201e+03
123             	6.60994900e+02
124             	6.61302296e+02
125             	1.58136526e+03
126             	1.10362772e+03
