# Region        : cellZone fluid
# Cells         : 1975
# Volume        : 3.05273303e+00
# Time          	volAverage(T)
1               	3.00000525e+02
2               	3.00000988e+02
3               	3.00004757e+02
4               	3.00011671e+02
5               	3.00016949e+02
6               	3.00023472e+02
7               	3.00030140e+02
8               	3.00038712e+02
9               	3.00046820e+02
10              	3.00055854e+02
11              	3.00064743e+02
12              	3.00074673e+02
13              	3.00084966e+02
14              	3.00097002e+02
15              	3.00112686e+02
16              	3.00126662e+02
17              	3.00139733e+02
18              	3.00155519e+02
19              	3.00169816e+02
20              	3.00190117e+02
21              	3.00207798e+02
22              	3.00219636e+02
23              	3.00232678e+02
24              	3.00246810e+02
25              	3.00259912e+02
26              	3.00272864e+02
27              	3.00281575e+02
28              	3.00293088e+02
29              	3.00303061e+02
30              	3.00314425e+02
31              	3.00324015e+02
32              	3.00333234e+02
33              	3.00343818e+02
34              	3.00354491e+02
35              	3.00366222e+02
36              	3.00379818e+02
37              	3.00391212e+02
38              	3.00402835e+02
39              	3.00417959e+02
40              	3.00430462e+02
41              	3.00444918e+02
42              	3.00459138e+02
43              	3.00472137e+02
44              	3.00485572e+02
45              	3.00499279e+02
46              	3.00511122e+02
47              	3.00521838e+02
48              	3.00535102e+02
49              	3.00545486e+02
50              	3.00557948e+02
51              	3.00571888e+02
52              	3.00579552e+02
53              	3.00587454e+02
54              	3.00595464e+02
55              	3.00603837e+02
56              	3.00610170e+02
57              	3.00616142e+02
58              	3.00622778e+02
59              	3.00628042e+02
60              	3.00634618e+02
61              	3.00642632e+02
62              	3.00649105e+02
63              	3.00657910e+02
64              	3.00666119e+02
65              	3.00676031e+02
66              	3.00686555e+02
67              	3.00697196e+02
68              	3.00707535e+02
69              	3.00716602e+02
70              	3.00720794e+02
71              	3.00731509e+02
72              	3.00735611e+02
73              	3.00740369e+02
74              	3.00744590e+02
75              	3.00751146e+02
76              	3.00756421e+02
77              	3.00760486e+02
78              	3.00768723e+02
79              	3.00777007e+02
80              	3.00783987e+02
81              	3.00789078e+02
82              	3.00796425e+02
83              	3.00800426e+02
84              	3.00802763e+02
85              	3.00805006e+02
86              	3.00804792e+02
87              	3.00804871e+02
88              	3.00806092e+02
89              	3.00807109e+02
90              	3.00809033e+02
91              	3.00811902e+02
92              	3.00817071e+02
93              	3.00820635e+02
94              	3.00826556e+02
95              	3.00831480e+02
96              	3.00835522e+02
97              	3.00840217e+02
98              	3.00845389e+02
99              	3.00848032e+02
100             	3.00849810e+02
101             	3.00850287e+02
102             	3.00850647e+02
103             	3.00852972e+02
104             	3.00854593e+02
105             	3.00855350e+02
106             	3.00857602e+02
107             	3.00855742e+02
108             	3.00858682e+02
109             	3.00861272e+02
110             	3.00863416e+02
111             	3.00865842e+02
112             	3.00866249e+02
113             	3.00865888e+02
114             	3.00870155e+02
115             	3.00870927e+02
116             	3.00873330e+02
117             	3.00874115e+02
118             	3.00874613e+02
119             	3.00875774e+02
120             	3.00878509e+02
121             	3.00878717e+02
122             	3.00882671e+02
123             	3.00883596e+02
124             	3.00886042e+02
125             	3.00886031e+02
126             	3.00883339e+02
127             	3.00881717e+02
128             	3.00879341e+02
129             	3.00878177e+02
130             	3.00878596e+02
131             	3.00879320e+02
132             	3.00880747e+02
133             	3.00882473e+02
134             	3.00885589e+02
135             	3.00891179e+02
136             	3.00893840e+02
137             	3.00894833e+02
138             	3.00894801e+02
139             	3.00895158e+02
140             	3.00891861e+02
141             	3.00888918e+02
142             	3.00886273e+02
143             	3.00885206e+02
144             	3.00882838e+02
145             	3.00882824e+02
146             	3.00883956e+02
147             	3.00885949e+02
148             	3.00887995e+02
149             	3.00889430e+02
150             	3.00891751e+02
151             	3.00893113e+02
152             	3.00894949e+02
153             	3.00895311e+02
154             	3.00895621e+02
155             	3.00894582e+02
156             	3.00894425e+02
157             	3.00893994e+02
158             	3.00891877e+02
159             	3.00890713e+02
160             	3.00888859e+02
161             	3.00889056e+02
162             	3.00890917e+02
163             	3.00890542e+02
164             	3.00891447e+02
165             	3.00892679e+02
166             	3.00895905e+02
167             	3.00895102e+02
168             	3.00895398e+02
169             	3.00894389e+02
170             	3.00894779e+02
171             	3.00893519e+02
172             	3.00894129e+02
173             	3.00892424e+02
174             	3.00892522e+02
175             	3.00890730e+02
176             	3.00889732e+02
177             	3.00888724e+02
178             	3.00887557e+02
179             	3.00885804e+02
180             	3.00884036e+02
181             	3.00885591e+02
182             	3.00885935e+02
183             	3.00886852e+02
184             	3.00887263e+02
185             	3.00888034e+02
186             	3.00888383e+02
187             	3.00887500e+02
188             	3.00888292e+02
189             	3.00889024e+02
190             	3.00889156e+02
191             	3.00889352e+02
192             	3.00889598e+02
193             	3.00887883e+02
194             	3.00886389e+02
195             	3.00884196e+02
196             	3.00882601e+02
197             	3.00881072e+02
198             	3.00880411e+02
199             	3.00879540e+02
200             	3.00879732e+02
201             	3.00879836e+02
202             	3.00882183e+02
203             	3.00883528e+02
204             	3.00883026e+02
205             	3.00883605e+02
206             	3.00883706e+02
207             	3.00882783e+02
208             	3.00880966e+02
209             	3.00880645e+02
210             	3.00879205e+02
211             	3.00878751e+02
212             	3.00878842e+02
213             	3.00878815e+02
214             	3.00878673e+02
215             	3.00879187e+02
216             	3.00879655e+02
217             	3.00880167e+02
218             	3.00880385e+02
219             	3.00880299e+02
220             	3.00880786e+02
221             	3.00880941e+02
222             	3.00880950e+02
223             	3.00880381e+02
224             	3.00880244e+02
225             	3.00879476e+02
226             	3.00878805e+02
227             	3.00877369e+02
228             	3.00876507e+02
229             	3.00876057e+02
230             	3.00875043e+02
231             	3.00875288e+02
232             	3.00874781e+02
233             	3.00874930e+02
234             	3.00874582e+02
235             	3.00874631e+02
236             	3.00874555e+02
237             	3.00874595e+02
238             	3.00874271e+02
239             	3.00874557e+02
240             	3.00874350e+02
241             	3.00874361e+02
242             	3.00874197e+02
243             	3.00874300e+02
244             	3.00874977e+02
245             	3.00875837e+02
246             	3.00875783e+02
247             	3.00875476e+02
248             	3.00875310e+02
249             	3.00875694e+02
250             	3.00875911e+02
251             	3.00875084e+02
252             	3.00874864e+02
253             	3.00875237e+02
254             	3.00874866e+02
255             	3.00874483e+02
256             	3.00874426e+02
257             	3.00873819e+02
258             	3.00873666e+02
259             	3.00873211e+02
260             	3.00873115e+02
261             	3.00873042e+02
262             	3.00872622e+02
263             	3.00872348e+02
264             	3.00872046e+02
265             	3.00872458e+02
266             	3.00872711e+02
267             	3.00872546e+02
268             	3.00871832e+02
269             	3.00871888e+02
270             	3.00872526e+02
271             	3.00873023e+02
272             	3.00873776e+02
273             	3.00875680e+02
274             	3.00876159e+02
275             	3.00874851e+02
276             	3.00874343e+02
277             	3.00874241e+02
278             	3.00873382e+02
279             	3.00872650e+02
280             	3.00871991e+02
281             	3.00870939e+02
282             	3.00870838e+02
283             	3.00870417e+02
284             	3.00870470e+02
285             	3.00870765e+02
286             	3.00870554e+02
287             	3.00870795e+02
288             	3.00871113e+02
289             	3.00872417e+02
290             	3.00873175e+02
291             	3.00874598e+02
292             	3.00875732e+02
293             	3.00874114e+02
294             	3.00873795e+02
295             	3.00873421e+02
296             	3.00873374e+02
297             	3.00872632e+02
298             	3.00871949e+02
299             	3.00871130e+02
300             	3.00870591e+02
301             	3.00870466e+02
302             	3.00869775e+02
303             	3.00869592e+02
304             	3.00869379e+02
305             	3.00869578e+02
306             	3.00869487e+02
307             	3.00870957e+02
308             	3.00871575e+02
309             	3.00872814e+02
310             	3.00873457e+02
311             	3.00873735e+02
312             	3.00874013e+02
313             	3.00874065e+02
314             	3.00874404e+02
315             	3.00872586e+02
316             	3.00872224e+02
317             	3.00872309e+02
318             	3.00872181e+02
319             	3.00871971e+02
320             	3.00871483e+02
321             	3.00871926e+02
322             	3.00871558e+02
323             	3.00871390e+02
324             	3.00871015e+02
325             	3.00870753e+02
326             	3.00870679e+02
327             	3.00870172e+02
328             	3.00869875e+02
329             	3.00869980e+02
330             	3.00870216e+02
331             	3.00869750e+02
332             	3.00870209e+02
333             	3.00870127e+02
334             	3.00871147e+02
335             	3.00871763e+02
336             	3.00873113e+02
337             	3.00874103e+02
338             	3.00873132e+02
339             	3.00872499e+02
340             	3.00872527e+02
341             	3.00872542e+02
342             	3.00872484e+02
343             	3.00872178e+02
344             	3.00871373e+02
345             	3.00870857e+02
346             	3.00870075e+02
347             	3.00870321e+02
348             	3.00870106e+02
349             	3.00870069e+02
350             	3.00870237e+02
351             	3.00870449e+02
352             	3.00870628e+02
353             	3.00870981e+02
354             	3.00871148e+02
355             	3.00870975e+02
356             	3.00872125e+02
357             	3.00871923e+02
358             	3.00871630e+02
359             	3.00871697e+02
360             	3.00870069e+02
361             	3.00869838e+02
362             	3.00869550e+02
363             	3.00869727e+02
364             	3.00870225e+02
365             	3.00871394e+02
366             	3.00872262e+02
367             	3.00872927e+02
368             	3.00873044e+02
369             	3.00873315e+02
370             	3.00872836e+02
371             	3.00872215e+02
372             	3.00872516e+02
373             	3.00871660e+02
374             	3.00870804e+02
375             	3.00869686e+02
376             	3.00868997e+02
377             	3.00868081e+02
378             	3.00868391e+02
379             	3.00868204e+02
380             	3.00868327e+02
381             	3.00869001e+02
382             	3.00869131e+02
383             	3.00869400e+02
384             	3.00870530e+02
385             	3.00871098e+02
386             	3.00871386e+02
387             	3.00872115e+02
388             	3.00871928e+02
389             	3.00870952e+02
390             	3.00870581e+02
391             	3.00870872e+02
392             	3.00870716e+02
393             	3.00871071e+02
394             	3.00870616e+02
395             	3.00870898e+02
396             	3.00870479e+02
397             	3.00870230e+02
398             	3.00870593e+02
399             	3.00870024e+02
400             	3.00870076e+02
401             	3.00869828e+02
402             	3.00870407e+02
403             	3.00870663e+02
404             	3.00871043e+02
405             	3.00871222e+02
406             	3.00871103e+02
407             	3.00871183e+02
408             	3.00871823e+02
409             	3.00872049e+02
410             	3.00872413e+02
411             	3.00871746e+02
412             	3.00871290e+02
413             	3.00872286e+02
414             	3.00871662e+02
415             	3.00871689e+02
416             	3.00870935e+02
417             	3.00870051e+02
418             	3.00869924e+02
419             	3.00869194e+02
420             	3.00868564e+02
421             	3.00867890e+02
422             	3.00867851e+02
423             	3.00869833e+02
424             	3.00870091e+02
425             	3.00871121e+02
426             	3.00870931e+02
427             	3.00871721e+02
428             	3.00872728e+02
429             	3.00872452e+02
430             	3.00872509e+02
431             	3.00871869e+02
432             	3.00872602e+02
433             	3.00873562e+02
434             	3.00873953e+02
435             	3.00874245e+02
436             	3.00874590e+02
437             	3.00874481e+02
438             	3.00874590e+02
439             	3.00874524e+02
440             	3.00874212e+02
441             	3.00873693e+02
442             	3.00872939e+02
443             	3.00872452e+02
444             	3.00871298e+02
445             	3.00871303e+02
446             	3.00870550e+02
447             	3.00869991e+02
448             	3.00870012e+02
449             	3.00870593e+02
450             	3.00869841e+02
451             	3.00869879e+02
452             	3.00870907e+02
453             	3.00870612e+02
454             	3.00871389e+02
455             	3.00872115e+02
456             	3.00873543e+02
457             	3.00874262e+02
458             	3.00875752e+02
459             	3.00873851e+02
460             	3.00873024e+02
461             	3.00872589e+02
462             	3.00871537e+02
463             	3.00870943e+02
464             	3.00870097e+02
465             	3.00870255e+02
466             	3.00869123e+02
467             	3.00868949e+02
468             	3.00869167e+02
469             	3.00869686e+02
470             	3.00870110e+02
471             	3.00870407e+02
472             	3.00873082e+02
473             	3.00873987e+02
474             	3.00874364e+02
475             	3.00875978e+02
476             	3.00875908e+02
477             	3.00875889e+02
478             	3.00876600e+02
479             	3.00874366e+02
480             	3.00873610e+02
481             	3.00874085e+02
482             	3.00873089e+02
483             	3.00873305e+02
484             	3.00872128e+02
485             	3.00871053e+02
486             	3.00870374e+02
487             	3.00869529e+02
488             	3.00869449e+02
489             	3.00869575e+02
490             	3.00869945e+02
491             	3.00871140e+02
492             	3.00871729e+02
493             	3.00872794e+02
494             	3.00873446e+02
495             	3.00874820e+02
496             	3.00874736e+02
497             	3.00874130e+02
498             	3.00874620e+02
499             	3.00874061e+02
500             	3.00874073e+02
501             	3.00873418e+02
502             	3.00873248e+02
503             	3.00873000e+02
504             	3.00873164e+02
505             	3.00873191e+02
506             	3.00873636e+02
507             	3.00873707e+02
508             	3.00873446e+02
509             	3.00873395e+02
510             	3.00873258e+02
511             	3.00873603e+02
512             	3.00875253e+02
513             	3.00875438e+02
514             	3.00873930e+02
515             	3.00873017e+02
516             	3.00871983e+02
517             	3.00871544e+02
518             	3.00870587e+02
519             	3.00870800e+02
520             	3.00871176e+02
521             	3.00871815e+02
522             	3.00872423e+02
523             	3.00872849e+02
524             	3.00873277e+02
525             	3.00873548e+02
526             	3.00874312e+02
527             	3.00874321e+02
528             	3.00874703e+02
529             	3.00874606e+02
530             	3.00874837e+02
531             	3.00873955e+02
532             	3.00873902e+02
533             	3.00873258e+02
534             	3.00873138e+02
535             	3.00872858e+02
536             	3.00872755e+02
537             	3.00872595e+02
538             	3.00872323e+02
539             	3.00872243e+02
540             	3.00871806e+02
541             	3.00871864e+02
542             	3.00871589e+02
543             	3.00871419e+02
544             	3.00871415e+02
545             	3.00871021e+02
546             	3.00870736e+02
547             	3.00870432e+02
548             	3.00870839e+02
549             	3.00870581e+02
550             	3.00870994e+02
551             	3.00871144e+02
552             	3.00871993e+02
553             	3.00872163e+02
554             	3.00872733e+02
555             	3.00873068e+02
556             	3.00872666e+02
557             	3.00872819e+02
558             	3.00872388e+02
559             	3.00871878e+02
560             	3.00871358e+02
561             	3.00871619e+02
562             	3.00871325e+02
563             	3.00871421e+02
564             	3.00871300e+02
565             	3.00871549e+02
566             	3.00871438e+02
567             	3.00871151e+02
568             	3.00871233e+02
569             	3.00870800e+02
570             	3.00871116e+02
571             	3.00870922e+02
572             	3.00870963e+02
573             	3.00871046e+02
574             	3.00871190e+02
575             	3.00871336e+02
576             	3.00871370e+02
577             	3.00871821e+02
578             	3.00872083e+02
579             	3.00872716e+02
580             	3.00873073e+02
581             	3.00872532e+02
582             	3.00872445e+02
583             	3.00871958e+02
584             	3.00872063e+02
585             	3.00871212e+02
586             	3.00871610e+02
587             	3.00870902e+02
588             	3.00870577e+02
589             	3.00870199e+02
590             	3.00870199e+02
591             	3.00870312e+02
592             	3.00871685e+02
593             	3.00871530e+02
594             	3.00871139e+02
595             	3.00871033e+02
596             	3.00870273e+02
597             	3.00870084e+02
598             	3.00870384e+02
599             	3.00870948e+02
600             	3.00872001e+02
601             	3.00871316e+02
602             	3.00871767e+02
603             	3.00872363e+02
604             	3.00872362e+02
605             	3.00871895e+02
606             	3.00871441e+02
607             	3.00870680e+02
608             	3.00870605e+02
609             	3.00870081e+02
610             	3.00869688e+02
611             	3.00869555e+02
612             	3.00869544e+02
613             	3.00869613e+02
614             	3.00869493e+02
615             	3.00869919e+02
616             	3.00870157e+02
617             	3.00870816e+02
618             	3.00871129e+02
619             	3.00872100e+02
620             	3.00872212e+02
621             	3.00872376e+02
622             	3.00872463e+02
623             	3.00872375e+02
624             	3.00872250e+02
625             	3.00872081e+02
626             	3.00872044e+02
627             	3.00871591e+02
628             	3.00871177e+02
629             	3.00871018e+02
630             	3.00871248e+02
631             	3.00871417e+02
632             	3.00871230e+02
633             	3.00871318e+02
634             	3.00871054e+02
635             	3.00871233e+02
636             	3.00870891e+02
637             	3.00871030e+02
638             	3.00870576e+02
639             	3.00870742e+02
640             	3.00870257e+02
641             	3.00869988e+02
642             	3.00871253e+02
643             	3.00870717e+02
644             	3.00870218e+02
645             	3.00869695e+02
646             	3.00870873e+02
647             	3.00870833e+02
648             	3.00870713e+02
649             	3.00870184e+02
650             	3.00870004e+02
651             	3.00870844e+02
652             	3.00870580e+02
653             	3.00871192e+02
654             	3.00871468e+02
655             	3.00871728e+02
656             	3.00871897e+02
657             	3.00872149e+02
658             	3.00872291e+02
659             	3.00872279e+02
660             	3.00872235e+02
661             	3.00871736e+02
662             	3.00871355e+02
663             	3.00870837e+02
664             	3.00870647e+02
665             	3.00870456e+02
666             	3.00869907e+02
667             	3.00869696e+02
668             	3.00869343e+02
669             	3.00869756e+02
670             	3.00869798e+02
671             	3.00869445e+02
672             	3.00869549e+02
673             	3.00869669e+02
674             	3.00870229e+02
675             	3.00870986e+02
676             	3.00871526e+02
677             	3.00871082e+02
678             	3.00870881e+02
679             	3.00871627e+02
680             	3.00871455e+02
681             	3.00871395e+02
682             	3.00870701e+02
683             	3.00870395e+02
684             	3.00869692e+02
685             	3.00869631e+02
686             	3.00869242e+02
687             	3.00868694e+02
688             	3.00868523e+02
689             	3.00868447e+02
690             	3.00868481e+02
691             	3.00869276e+02
692             	3.00869331e+02
693             	3.00869882e+02
694             	3.00870048e+02
695             	3.00871061e+02
696             	3.00871549e+02
697             	3.00871992e+02
698             	3.00872546e+02
699             	3.00872866e+02
700             	3.00873843e+02
701             	3.00872621e+02
702             	3.00872924e+02
703             	3.00872619e+02
704             	3.00872296e+02
705             	3.00871945e+02
706             	3.00871501e+02
707             	3.00871371e+02
708             	3.00870530e+02
709             	3.00870109e+02
710             	3.00869569e+02
711             	3.00869404e+02
712             	3.00868837e+02
713             	3.00869146e+02
714             	3.00868776e+02
715             	3.00869354e+02
716             	3.00869378e+02
717             	3.00868756e+02
718             	3.00868866e+02
719             	3.00869011e+02
720             	3.00869648e+02
721             	3.00869764e+02
722             	3.00869796e+02
723             	3.00870006e+02
724             	3.00870634e+02
725             	3.00871053e+02
726             	3.00871346e+02
727             	3.00871612e+02
728             	3.00872082e+02
729             	3.00872135e+02
730             	3.00872718e+02
731             	3.00872366e+02
732             	3.00872643e+02
733             	3.00871906e+02
734             	3.00871858e+02
735             	3.00870832e+02
736             	3.00870861e+02
737             	3.00869851e+02
738             	3.00870104e+02
739             	3.00869268e+02
740             	3.00869140e+02
741             	3.00869124e+02
742             	3.00868759e+02
743             	3.00868972e+02
744             	3.00868944e+02
745             	3.00868743e+02
746             	3.00868733e+02
747             	3.00869505e+02
748             	3.00869933e+02
749             	3.00870709e+02
750             	3.00872104e+02
751             	3.00873982e+02
752             	3.00872958e+02
753             	3.00872696e+02
754             	3.00874199e+02
755             	3.00874133e+02
756             	3.00873743e+02
757             	3.00873033e+02
758             	3.00872650e+02
759             	3.00871841e+02
760             	3.00871087e+02
761             	3.00870239e+02
762             	3.00869538e+02
763             	3.00869262e+02
764             	3.00868807e+02
765             	3.00868487e+02
766             	3.00869255e+02
767             	3.00869414e+02
768             	3.00870210e+02
769             	3.00870368e+02
770             	3.00870902e+02
771             	3.00871014e+02
772             	3.00872017e+02
773             	3.00872714e+02
774             	3.00874062e+02
775             	3.00871988e+02
776             	3.00871713e+02
777             	3.00872051e+02
778             	3.00871572e+02
779             	3.00870708e+02
780             	3.00869973e+02
781             	3.00870135e+02
782             	3.00869646e+02
783             	3.00870145e+02
784             	3.00870601e+02
785             	3.00871399e+02
786             	3.00872952e+02
787             	3.00873040e+02
788             	3.00873810e+02
789             	3.00874791e+02
790             	3.00873636e+02
791             	3.00872845e+02
792             	3.00872151e+02
793             	3.00871432e+02
794             	3.00871953e+02
795             	3.00872444e+02
796             	3.00871980e+02
797             	3.00871987e+02
798             	3.00871877e+02
799             	3.00872278e+02
800             	3.00872217e+02
801             	3.00871543e+02
802             	3.00870728e+02
803             	3.00870823e+02
804             	3.00870331e+02
805             	3.00872190e+02
806             	3.00873268e+02
807             	3.00872374e+02
808             	3.00871712e+02
809             	3.00870226e+02
810             	3.00870192e+02
811             	3.00870294e+02
812             	3.00871138e+02
813             	3.00872761e+02
814             	3.00874148e+02
815             	3.00874962e+02
816             	3.00875456e+02
817             	3.00875771e+02
818             	3.00875420e+02
819             	3.00874551e+02
820             	3.00874033e+02
821             	3.00873592e+02
822             	3.00872416e+02
823             	3.00871664e+02
824             	3.00870270e+02
825             	3.00869481e+02
826             	3.00869738e+02
827             	3.00869329e+02
828             	3.00868968e+02
829             	3.00869194e+02
830             	3.00869818e+02
831             	3.00870789e+02
832             	3.00873151e+02
833             	3.00874346e+02
834             	3.00875219e+02
835             	3.00874508e+02
836             	3.00876151e+02
837             	3.00877107e+02
838             	3.00875073e+02
839             	3.00874420e+02
840             	3.00873341e+02
841             	3.00872654e+02
842             	3.00871662e+02
843             	3.00871753e+02
844             	3.00870814e+02
845             	3.00869966e+02
846             	3.00869307e+02
847             	3.00868668e+02
848             	3.00869150e+02
849             	3.00869836e+02
850             	3.00872711e+02
851             	3.00872871e+02
852             	3.00874516e+02
853             	3.00874348e+02
854             	3.00874560e+02
855             	3.00874348e+02
856             	3.00873429e+02
857             	3.00873269e+02
858             	3.00873407e+02
859             	3.00872971e+02
860             	3.00872128e+02
861             	3.00871961e+02
862             	3.00871561e+02
863             	3.00871288e+02
864             	3.00871419e+02
865             	3.00871434e+02
866             	3.00871449e+02
867             	3.00870896e+02
868             	3.00871669e+02
869             	3.00871881e+02
870             	3.00872763e+02
871             	3.00872653e+02
872             	3.00873729e+02
873             	3.00873176e+02
874             	3.00873259e+02
875             	3.00872253e+02
876             	3.00871895e+02
877             	3.00872052e+02
878             	3.00871833e+02
879             	3.00872184e+02
880             	3.00872770e+02
881             	3.00873217e+02
882             	3.00873818e+02
883             	3.00874285e+02
884             	3.00874152e+02
885             	3.00873657e+02
886             	3.00873276e+02
887             	3.00872696e+02
888             	3.00872403e+02
889             	3.00871341e+02
890             	3.00870571e+02
891             	3.00870132e+02
892             	3.00869486e+02
893             	3.00869211e+02
894             	3.00868584e+02
895             	3.00868476e+02
896             	3.00868665e+02
897             	3.00870056e+02
898             	3.00869858e+02
899             	3.00870211e+02
900             	3.00870579e+02
901             	3.00871277e+02
902             	3.00872293e+02
903             	3.00873042e+02
904             	3.00873362e+02
905             	3.00872247e+02
906             	3.00872104e+02
907             	3.00872127e+02
908             	3.00872079e+02
909             	3.00872898e+02
910             	3.00872968e+02
911             	3.00873014e+02
912             	3.00873245e+02
913             	3.00873132e+02
914             	3.00872716e+02
915             	3.00872349e+02
916             	3.00872316e+02
917             	3.00872297e+02
918             	3.00871837e+02
919             	3.00871564e+02
920             	3.00870879e+02
921             	3.00870361e+02
922             	3.00869544e+02
923             	3.00869361e+02
924             	3.00868692e+02
925             	3.00869194e+02
926             	3.00869565e+02
927             	3.00869277e+02
928             	3.00869724e+02
929             	3.00869922e+02
930             	3.00872101e+02
931             	3.00872701e+02
932             	3.00873697e+02
933             	3.00874657e+02