# Region        : cellZone fluid
# Cells         : 9918
# Volume        : 1.83996436e+01
# Time          	volAverage(T)
1               	3.00000018e+02
2               	3.00000064e+02
3               	3.00000449e+02
4               	3.00001038e+02
5               	3.00001398e+02
6               	3.00001889e+02
7               	3.00002367e+02
8               	3.00002891e+02
9               	3.00003826e+02
10              	3.00004638e+02
11              	3.00005483e+02
12              	3.00006376e+02
13              	3.00007548e+02
14              	3.00009140e+02
15              	3.00010698e+02
16              	3.00011468e+02
17              	3.00012738e+02
18              	3.00013959e+02
19              	3.00015355e+02
20              	3.00016748e+02
21              	3.00018147e+02
22              	3.00019466e+02
23              	3.00020840e+02
24              	3.00022265e+02
25              	3.00023984e+02
26              	3.00025479e+02
27              	3.00026900e+02
28              	3.00028390e+02
29              	3.00029923e+02
30              	3.00031976e+02
31              	3.00033624e+02
32              	3.00035422e+02
33              	3.00037167e+02
34              	3.00039683e+02
35              	3.00041790e+02
36              	3.00043789e+02
37              	3.00045782e+02
38              	3.00048404e+02
39              	3.00050199e+02
40              	3.00052104e+02
41              	3.00053752e+02
42              	3.00055566e+02
43              	3.00057562e+02
44              	3.00059291e+02
45              	3.00060527e+02
46              	3.00062379e+02
47              	3.00064525e+02
48              	3.00066580e+02
49              	3.00068172e+02
50              	3.00069771e+02
51              	3.00072027e+02
52              	3.00074857e+02
53              	3.00076520e+02
54              	3.00078335e+02
55              	3.00079837e+02
56              	3.00082046e+02
57              	3.00083504e+02
58              	3.00085892e+02
59              	3.00087120e+02
60              	3.00088286e+02
61              	3.00089821e+02
62              	3.00091421e+02
63              	3.00092889e+02
64              	3.00094402e+02
65              	3.00096186e+02
66              	3.00098382e+02
67              	3.00100108e+02
68              	3.00102300e+02
69              	3.00103877e+02
70              	3.00105691e+02
71              	3.00106897e+02
72              	3.00107990e+02
73              	3.00109223e+02
74              	3.00110503e+02
75              	3.00111551e+02
76              	3.00112924e+02
77              	3.00114705e+02
78              	3.00116111e+02
79              	3.00117381e+02
80              	3.00118382e+02
81              	3.00119605e+02
82              	3.00121114e+02
83              	3.00123283e+02
84              	3.00124780e+02
85              	3.00125816e+02
86              	3.00127028e+02
87              	3.00127822e+02
88              	3.00129023e+02
89              	3.00130262e+02
90              	3.00131318e+02
91              	3.00132856e+02
92              	3.00134092e+02
93              	3.00135175e+02
94              	3.00136176e+02
95              	3.00137504e+02
96              	3.00138792e+02
97              	3.00139725e+02
98              	3.00140920e+02
99              	3.00142620e+02
100             	3.00143524e+02
101             	3.00144463e+02
102             	3.00145194e+02
103             	3.00146514e+02
104             	3.00147071e+02
105             	3.00147645e+02
106             	3.00148897e+02
107             	3.00149451e+02
108             	3.00149954e+02
109             	3.00150694e+02
110             	3.00152044e+02
111             	3.00152811e+02
112             	3.00153853e+02
113             	3.00155367e+02
114             	3.00155894e+02
115             	3.00156789e+02
116             	3.00157414e+02
117             	3.00157947e+02
118             	3.00158535e+02
119             	3.00158920e+02
120             	3.00159869e+02
121             	3.00160467e+02
122             	3.00161587e+02
123             	3.00162238e+02
124             	3.00163020e+02
125             	3.00164062e+02
126             	3.00165197e+02
127             	3.00166081e+02
128             	3.00166788e+02
129             	3.00167444e+02
130             	3.00167778e+02
131             	3.00168293e+02
132             	3.00168596e+02
133             	3.00168918e+02
134             	3.00169052e+02
135             	3.00169727e+02
136             	3.00169942e+02
137             	3.00170301e+02
138             	3.00170556e+02
139             	3.00171166e+02
140             	3.00171955e+02
141             	3.00172933e+02
142             	3.00172686e+02
143             	3.00172698e+02
144             	3.00172777e+02
145             	3.00173019e+02
146             	3.00173233e+02
147             	3.00173401e+02
148             	3.00173560e+02
149             	3.00173492e+02
150             	3.00173572e+02
151             	3.00173694e+02
152             	3.00173833e+02
153             	3.00174146e+02
154             	3.00174109e+02
155             	3.00174289e+02
156             	3.00174339e+02
157             	3.00175199e+02
158             	3.00176069e+02
159             	3.00175677e+02
160             	3.00175808e+02
161             	3.00175896e+02
162             	3.00176078e+02
163             	3.00176266e+02
164             	3.00176220e+02
165             	3.00176450e+02
166             	3.00176653e+02
167             	3.00176886e+02
168             	3.00177302e+02
169             	3.00177196e+02
170             	3.00177466e+02
171             	3.00177638e+02
172             	3.00178535e+02
173             	3.00179478e+02
174             	3.00179389e+02
175             	3.00179484e+02
176             	3.00179461e+02
177             	3.00179495e+02
178             	3.00179513e+02
179             	3.00179492e+02
180             	3.00179629e+02
181             	3.00179774e+02
182             	3.00180251e+02
183             	3.00180243e+02
184             	3.00180384e+02
185             	3.00180486e+02
186             	3.00181224e+02
187             	3.00182366e+02
188             	3.00181962e+02
189             	3.00181746e+02
190             	3.00181599e+02
191             	3.00181460e+02
192             	3.00181391e+02
193             	3.00181522e+02
194             	3.00181546e+02
195             	3.00181782e+02
196             	3.00182209e+02
197             	3.00182181e+02
198             	3.00182448e+02
199             	3.00182413e+02
200             	3.00182730e+02
201             	3.00182658e+02
202             	3.00182704e+02
203             	3.00182810e+02
204             	3.00182664e+02
205             	3.00182714e+02
206             	3.00182767e+02
207             	3.00182881e+02
208             	3.00182931e+02
209             	3.00183120e+02
210             	3.00183057e+02
211             	3.00183286e+02
212             	3.00183513e+02
213             	3.00183644e+02
214             	3.00183778e+02
215             	3.00183897e+02
216             	3.00184155e+02
217             	3.00184232e+02
218             	3.00184204e+02
219             	3.00184212e+02
220             	3.00184322e+02
221             	3.00184403e+02
222             	3.00184454e+02
223             	3.00184555e+02
224             	3.00184837e+02
225             	3.00184945e+02
226             	3.00185103e+02
227             	3.00185162e+02
228             	3.00185238e+02
229             	3.00185288e+02
230             	3.00185413e+02
231             	3.00185472e+02
232             	3.00185533e+02
233             	3.00185641e+02
234             	3.00185707e+02
235             	3.00185764e+02
236             	3.00185814e+02
237             	3.00185856e+02
238             	3.00185924e+02
239             	3.00185987e+02
240             	3.00186101e+02
241             	3.00186176e+02
242             	3.00186243e+02
243             	3.00186277e+02
244             	3.00186333e+02
245             	3.00186360e+02
246             	3.00186449e+02
247             	3.00186462e+02
248             	3.00186540e+02
249             	3.00186551e+02
250             	3.00186652e+02
251             	3.00186757e+02
252             	3.00186862e+02
253             	3.00186937e+02
254             	3.00187037e+02
255             	3.00187094e+02
256             	3.00187247e+02
257             	3.00187284e+02
258             	3.00187444e+02
259             	3.00187498e+02
260             	3.00187592e+02
261             	3.00187613e+02
262             	3.00187687e+02
263             	3.00187751e+02
264             	3.00187806e+02
265             	3.00187862e+02
266             	3.00187945e+02
267             	3.00188000e+02
268             	3.00188049e+02
269             	3.00188073e+02
270             	3.00188141e+02
271             	3.00188184e+02
272             	3.00188246e+02
273             	3.00188280e+02
274             	3.00188339e+02
275             	3.00188374e+02
276             	3.00188461e+02
277             	3.00188491e+02
278             	3.00188597e+02
279             	3.00188610e+02
280             	3.00188691e+02
281             	3.00188713e+02
282             	3.00188792e+02
283             	3.00188830e+02
284             	3.00188916e+02
285             	3.00188937e+02
286             	3.00188987e+02
287             	3.00188985e+02
288             	3.00189042e+02
289             	3.00189087e+02
290             	3.00189152e+02
291             	3.00189162e+02
292             	3.00189232e+02
293             	3.00189263e+02
294             	3.00189340e+02
295             	3.00189367e+02
296             	3.00189433e+02
297             	3.00189447e+02
298             	3.00189518e+02
299             	3.00189537e+02
300             	3.00189600e+02
301             	3.00189606e+02
302             	3.00189653e+02
303             	3.00189647e+02
304             	3.00189715e+02
305             	3.00189745e+02
306             	3.00189808e+02
307             	3.00189824e+02
308             	3.00189895e+02
309             	3.00189918e+02
310             	3.00190007e+02
311             	3.00190010e+02
312             	3.00190079e+02
313             	3.00190084e+02
314             	3.00190139e+02
315             	3.00190143e+02
316             	3.00190205e+02
317             	3.00190212e+02
318             	3.00190272e+02
319             	3.00190286e+02
320             	3.00190347e+02
321             	3.00190343e+02
322             	3.00190389e+02
323             	3.00190377e+02
324             	3.00190422e+02
325             	3.00190424e+02
326             	3.00190468e+02
327             	3.00190467e+02
328             	3.00190524e+02
329             	3.00190523e+02
330             	3.00190585e+02
331             	3.00190599e+02
332             	3.00190671e+02
333             	3.00190679e+02
334             	3.00190726e+02
335             	3.00190727e+02
336             	3.00190777e+02
337             	3.00190782e+02
338             	3.00190824e+02
339             	3.00190810e+02
340             	3.00190867e+02
341             	3.00190883e+02
342             	3.00190934e+02
343             	3.00190937e+02
344             	3.00190991e+02
345             	3.00190986e+02
346             	3.00191044e+02
347             	3.00191062e+02
348             	3.00191109e+02
349             	3.00191099e+02
350             	3.00191152e+02
351             	3.00191151e+02
352             	3.00191202e+02
353             	3.00191195e+02
354             	3.00191233e+02
355             	3.00191221e+02
356             	3.00191269e+02
357             	3.00191277e+02
358             	3.00191326e+02
359             	3.00191317e+02
360             	3.00191366e+02
361             	3.00191366e+02
362             	3.00191425e+02
363             	3.00191427e+02
364             	3.00191453e+02
365             	3.00191445e+02
366             	3.00191502e+02
367             	3.00191489e+02
368             	3.00191528e+02
369             	3.00191527e+02
370             	3.00191571e+02
371             	3.00191559e+02
372             	3.00191585e+02
373             	3.00191583e+02
374             	3.00191632e+02
375             	3.00191626e+02
376             	3.00191665e+02
377             	3.00191669e+02
378             	3.00191708e+02
379             	3.00191703e+02
380             	3.00191754e+02
381             	3.00191740e+02
382             	3.00191788e+02
383             	3.00191771e+02
384             	3.00191813e+02
385             	3.00191805e+02
386             	3.00191843e+02
387             	3.00191827e+02
388             	3.00191861e+02
389             	3.00191848e+02
390             	3.00191884e+02
391             	3.00191873e+02
392             	3.00191908e+02
393             	3.00191892e+02
394             	3.00191930e+02
395             	3.00191921e+02
396             	3.00191961e+02
397             	3.00191948e+02
398             	3.00191984e+02
399             	3.00191972e+02
400             	3.00192016e+02
401             	3.00191998e+02
402             	3.00192034e+02
403             	3.00192025e+02
404             	3.00192071e+02
405             	3.00192047e+02
406             	3.00192076e+02
407             	3.00192068e+02
408             	3.00192106e+02
409             	3.00192089e+02
410             	3.00192121e+02
411             	3.00192110e+02
412             	3.00192151e+02
413             	3.00192124e+02
414             	3.00192154e+02
415             	3.00192144e+02
416             	3.00192182e+02
417             	3.00192166e+02
418             	3.00192199e+02
419             	3.00192185e+02
420             	3.00192222e+02
421             	3.00192205e+02
422             	3.00192238e+02
423             	3.00192227e+02
424             	3.00192273e+02
425             	3.00192247e+02
426             	3.00192275e+02
427             	3.00192268e+02
428             	3.00192307e+02
429             	3.00192287e+02
430             	3.00192316e+02
431             	3.00192305e+02
432             	3.00192344e+02
433             	3.00192321e+02
434             	3.00192345e+02
435             	3.00192330e+02
436             	3.00192364e+02
437             	3.00192342e+02
438             	3.00192375e+02
439             	3.00192357e+02
440             	3.00192391e+02
441             	3.00192370e+02
442             	3.00192398e+02
443             	3.00192383e+02
444             	3.00192419e+02
445             	3.00192396e+02
446             	3.00192424e+02
447             	3.00192409e+02
448             	3.00192447e+02
449             	3.00192422e+02
450             	3.00192446e+02
451             	3.00192432e+02
452             	3.00192470e+02
453             	3.00192444e+02
454             	3.00192469e+02
455             	3.00192455e+02
456             	3.00192491e+02
457             	3.00192466e+02
458             	3.00192492e+02
459             	3.00192478e+02
460             	3.00192515e+02
461             	3.00192490e+02
462             	3.00192515e+02
463             	3.00192502e+02
464             	3.00192538e+02
465             	3.00192514e+02
466             	3.00192539e+02
467             	3.00192524e+02
468             	3.00192560e+02
469             	3.00192534e+02
470             	3.00192558e+02
471             	3.00192541e+02
472             	3.00192578e+02
473             	3.00192553e+02
474             	3.00192577e+02
475             	3.00192562e+02
476             	3.00192596e+02
477             	3.00192571e+02
478             	3.00192596e+02
479             	3.00192580e+02
480             	3.00192620e+02
481             	3.00192592e+02
482             	3.00192615e+02
483             	3.00192600e+02
484             	3.00192632e+02
485             	3.00192607e+02
486             	3.00192633e+02
487             	3.00192615e+02
488             	3.00192650e+02
489             	3.00192622e+02
490             	3.00192646e+02
491             	3.00192631e+02
492             	3.00192658e+02
493             	3.00192635e+02
494             	3.00192661e+02
495             	3.00192645e+02
496             	3.00192681e+02
497             	3.00192653e+02
498             	3.00192679e+02
499             	3.00192662e+02
500             	3.00192696e+02
501             	3.00192669e+02
502             	3.00192696e+02
503             	3.00192679e+02
504             	3.00192713e+02
505             	3.00192687e+02
506             	3.00192711e+02
507             	3.00192692e+02
508             	3.00192728e+02
509             	3.00192698e+02
510             	3.00192718e+02
511             	3.00192701e+02
512             	3.00192735e+02
513             	3.00192709e+02
514             	3.00192733e+02
515             	3.00192716e+02
516             	3.00192751e+02
517             	3.00192721e+02
518             	3.00192744e+02
519             	3.00192728e+02
520             	3.00192760e+02
521             	3.00192732e+02
522             	3.00192755e+02
523             	3.00192737e+02
524             	3.00192776e+02
525             	3.00192745e+02
526             	3.00192765e+02
527             	3.00192748e+02
528             	3.00192780e+02
529             	3.00192752e+02
530             	3.00192777e+02
531             	3.00192757e+02
532             	3.00192789e+02
533             	3.00192761e+02
534             	3.00192783e+02
535             	3.00192761e+02
536             	3.00192796e+02
537             	3.00192768e+02
538             	3.00192790e+02
539             	3.00192770e+02
540             	3.00192804e+02
541             	3.00192774e+02
542             	3.00192793e+02
543             	3.00192777e+02
544             	3.00192807e+02
545             	3.00192780e+02
546             	3.00192806e+02
547             	3.00192786e+02
548             	3.00192823e+02
549             	3.00192793e+02
550             	3.00192814e+02
551             	3.00192796e+02
552             	3.00192830e+02
553             	3.00192800e+02
554             	3.00192819e+02
555             	3.00192802e+02
556             	3.00192833e+02
557             	3.00192805e+02
558             	3.00192827e+02
559             	3.00192802e+02
560             	3.00192838e+02
561             	3.00192809e+02
562             	3.00192829e+02
563             	3.00192813e+02
564             	3.00192843e+02
565             	3.00192818e+02
566             	3.00192843e+02
567             	3.00192822e+02
568             	3.00192856e+02
569             	3.00192829e+02
570             	3.00192853e+02
571             	3.00192835e+02
572             	3.00192873e+02
573             	3.00192842e+02
574             	3.00192861e+02
575             	3.00192843e+02
576             	3.00192874e+02
577             	3.00192844e+02
578             	3.00192869e+02
579             	3.00192849e+02
580             	3.00192883e+02
581             	3.00192853e+02
582             	3.00192873e+02
583             	3.00192853e+02
584             	3.00192881e+02
585             	3.00192856e+02
586             	3.00192882e+02
587             	3.00192855e+02
588             	3.00192882e+02
589             	3.00192856e+02
590             	3.00192882e+02
591             	3.00192857e+02
592             	3.00192884e+02
593             	3.00192860e+02
594             	3.00192887e+02
595             	3.00192864e+02
596             	3.00192893e+02
597             	3.00192869e+02
598             	3.00192896e+02
599             	3.00192875e+02
600             	3.00192906e+02
601             	3.00192881e+02
602             	3.00192903e+02
603             	3.00192884e+02
604             	3.00192917e+02
605             	3.00192889e+02
606             	3.00192909e+02
607             	3.00192891e+02
608             	3.00192924e+02
609             	3.00192893e+02
610             	3.00192913e+02
611             	3.00192894e+02
612             	3.00192923e+02
613             	3.00192894e+02
614             	3.00192912e+02
615             	3.00192891e+02
616             	3.00192927e+02
617             	3.00192893e+02
618             	3.00192910e+02
619             	3.00192890e+02
620             	3.00192923e+02
621             	3.00192893e+02
622             	3.00192914e+02
623             	3.00192898e+02
624             	3.00192927e+02
625             	3.00192899e+02
626             	3.00192918e+02
627             	3.00192898e+02
628             	3.00192928e+02
629             	3.00192899e+02
630             	3.00192923e+02
631             	3.00192900e+02
632             	3.00192931e+02
633             	3.00192905e+02
634             	3.00192928e+02
635             	3.00192909e+02
636             	3.00192941e+02
637             	3.00192913e+02
638             	3.00192931e+02
639             	3.00192917e+02
640             	3.00192947e+02
641             	3.00192923e+02
642             	3.00192951e+02
643             	3.00192919e+02
644             	3.00192940e+02
645             	3.00192919e+02
646             	3.00192949e+02
647             	3.00192916e+02
648             	3.00192933e+02
649             	3.00192906e+02
650             	3.00192940e+02
651             	3.00192913e+02
652             	3.00192935e+02
653             	3.00192915e+02
654             	3.00192947e+02
655             	3.00192916e+02
656             	3.00192934e+02
657             	3.00192918e+02
658             	3.00192948e+02
659             	3.00192922e+02
660             	3.00192953e+02
661             	3.00192924e+02
662             	3.00192949e+02
663             	3.00192924e+02
664             	3.00192950e+02
665             	3.00192924e+02
666             	3.00192950e+02
667             	3.00192925e+02
668             	3.00192951e+02
669             	3.00192918e+02
670             	3.00192948e+02
671             	3.00192923e+02
672             	3.00192946e+02
673             	3.00192919e+02
674             	3.00192948e+02
675             	3.00192918e+02
676             	3.00192940e+02
677             	3.00192918e+02
678             	3.00192950e+02
679             	3.00192916e+02
680             	3.00192936e+02
681             	3.00192916e+02
682             	3.00192946e+02
683             	3.00192917e+02
684             	3.00192938e+02
685             	3.00192919e+02
686             	3.00192954e+02
687             	3.00192924e+02
688             	3.00192944e+02
689             	3.00192924e+02
690             	3.00192954e+02
691             	3.00192924e+02
692             	3.00192946e+02
693             	3.00192922e+02
694             	3.00192955e+02
695             	3.00192922e+02
696             	3.00192941e+02
697             	3.00192918e+02
698             	3.00192952e+02
699             	3.00192921e+02
700             	3.00192938e+02
701             	3.00192920e+02
702             	3.00192949e+02
703             	3.00192922e+02
704             	3.00192945e+02
705             	3.00192924e+02
706             	3.00192955e+02
707             	3.00192926e+02
708             	3.00192947e+02
709             	3.00192927e+02
710             	3.00192959e+02
711             	3.00192929e+02
712             	3.00192953e+02
713             	3.00192930e+02
714             	3.00192962e+02
715             	3.00192929e+02
716             	3.00192948e+02
717             	3.00192927e+02
718             	3.00192957e+02
719             	3.00192926e+02
720             	3.00192944e+02
721             	3.00192926e+02
722             	3.00192956e+02
723             	3.00192928e+02
724             	3.00192953e+02
725             	3.00192928e+02
726             	3.00192960e+02
727             	3.00192929e+02
728             	3.00192949e+02
729             	3.00192927e+02
730             	3.00192961e+02
731             	3.00192932e+02
732             	3.00192950e+02
733             	3.00192933e+02
734             	3.00192963e+02
735             	3.00192936e+02
736             	3.00192961e+02
737             	3.00192941e+02
738             	3.00192974e+02
739             	3.00192946e+02
740             	3.00192962e+02
741             	3.00192946e+02
742             	3.00192975e+02
743             	3.00192945e+02
744             	3.00192966e+02
745             	3.00192942e+02
746             	3.00192976e+02
747             	3.00192941e+02
748             	3.00192966e+02
749             	3.00192942e+02
750             	3.00192972e+02
751             	3.00192941e+02
752             	3.00192961e+02
753             	3.00192941e+02
754             	3.00192969e+02
755             	3.00192939e+02
756             	3.00192957e+02
757             	3.00192935e+02
758             	3.00192963e+02
759             	3.00192936e+02
760             	3.00192962e+02
761             	3.00192936e+02
762             	3.00192959e+02
763             	3.00192934e+02
764             	3.00192962e+02
765             	3.00192937e+02
766             	3.00192965e+02
767             	3.00192943e+02
768             	3.00192970e+02
769             	3.00192940e+02
770             	3.00192969e+02
771             	3.00192943e+02
772             	3.00192966e+02
773             	3.00192939e+02
774             	3.00192968e+02
775             	3.00192943e+02
776             	3.00192967e+02
777             	3.00192940e+02
778             	3.00192968e+02
779             	3.00192939e+02
780             	3.00192961e+02
781             	3.00192937e+02
782             	3.00192965e+02
783             	3.00192938e+02
784             	3.00192959e+02
785             	3.00192941e+02
786             	3.00192972e+02
787             	3.00192941e+02
788             	3.00192959e+02
789             	3.00192936e+02
790             	3.00192966e+02
791             	3.00192933e+02
792             	3.00192953e+02
793             	3.00192933e+02
794             	3.00192965e+02
795             	3.00192933e+02
796             	3.00192955e+02
797             	3.00192935e+02
798             	3.00192966e+02
799             	3.00192937e+02
800             	3.00192957e+02
801             	3.00192937e+02
802             	3.00192970e+02
803             	3.00192938e+02
804             	3.00192954e+02
805             	3.00192937e+02
806             	3.00192965e+02
807             	3.00192937e+02
808             	3.00192958e+02
809             	3.00192935e+02
810             	3.00192968e+02
811             	3.00192937e+02
812             	3.00192957e+02
813             	3.00192937e+02
814             	3.00192969e+02
815             	3.00192938e+02
816             	3.00192959e+02
817             	3.00192938e+02
818             	3.00192970e+02
819             	3.00192939e+02
820             	3.00192957e+02
821             	3.00192939e+02
822             	3.00192967e+02
823             	3.00192938e+02
824             	3.00192959e+02
825             	3.00192936e+02
826             	3.00192967e+02
827             	3.00192934e+02
828             	3.00192951e+02
829             	3.00192932e+02
830             	3.00192962e+02
831             	3.00192930e+02
832             	3.00192950e+02
833             	3.00192930e+02
834             	3.00192962e+02
835             	3.00192931e+02
836             	3.00192952e+02
837             	3.00192932e+02
838             	3.00192966e+02
839             	3.00192935e+02
840             	3.00192954e+02
841             	3.00192936e+02
842             	3.00192966e+02
843             	3.00192937e+02
844             	3.00192958e+02
845             	3.00192940e+02
846             	3.00192973e+02
847             	3.00192942e+02
848             	3.00192962e+02
849             	3.00192943e+02
850             	3.00192974e+02
851             	3.00192943e+02
852             	3.00192963e+02
853             	3.00192942e+02
854             	3.00192977e+02
855             	3.00192944e+02
856             	3.00192961e+02
857             	3.00192941e+02
858             	3.00192972e+02
859             	3.00192941e+02
860             	3.00192961e+02
861             	3.00192940e+02
862             	3.00192971e+02
863             	3.00192939e+02
864             	3.00192957e+02
865             	3.00192934e+02
866             	3.00192964e+02
867             	3.00192936e+02
868             	3.00192961e+02
869             	3.00192937e+02
870             	3.00192965e+02
871             	3.00192933e+02
872             	3.00192959e+02
873             	3.00192934e+02
874             	3.00192966e+02
875             	3.00192934e+02
876             	3.00192955e+02
877             	3.00192934e+02
878             	3.00192966e+02
879             	3.00192936e+02
880             	3.00192954e+02
881             	3.00192934e+02
882             	3.00192964e+02
883             	3.00192932e+02
884             	3.00192952e+02
885             	3.00192932e+02
886             	3.00192963e+02
887             	3.00192929e+02
888             	3.00192950e+02
889             	3.00192926e+02
890             	3.00192954e+02
891             	3.00192924e+02
892             	3.00192943e+02
893             	3.00192924e+02
894             	3.00192952e+02
895             	3.00192923e+02
896             	3.00192945e+02
897             	3.00192930e+02
898             	3.00192963e+02
899             	3.00192933e+02
900             	3.00192955e+02
901             	3.00192929e+02
902             	3.00192965e+02
903             	3.00192929e+02
904             	3.00192950e+02
905             	3.00192924e+02
906             	3.00192955e+02
907             	3.00192920e+02
908             	3.00192938e+02
909             	3.00192921e+02
910             	3.00192948e+02
911             	3.00192923e+02
912             	3.00192945e+02
913             	3.00192923e+02
914             	3.00192955e+02
915             	3.00192926e+02
916             	3.00192947e+02
917             	3.00192926e+02
918             	3.00192958e+02
919             	3.00192929e+02
920             	3.00192951e+02
921             	3.00192929e+02
922             	3.00192956e+02
923             	3.00192930e+02
924             	3.00192952e+02
925             	3.00192931e+02
926             	3.00192965e+02
927             	3.00192934e+02
928             	3.00192957e+02
929             	3.00192939e+02
930             	3.00192972e+02
931             	3.00192941e+02
932             	3.00192960e+02
933             	3.00192940e+02