# Region        : cellZone fluid
# Cells         : 9320
# Volume        : 1.74470823e+01
# Time          	volAverage(T)
1               	2.99999929e+02
2               	2.99999994e+02
3               	3.00000743e+02
4               	3.00001552e+02
5               	3.00001937e+02
6               	3.00002163e+02
7               	3.00002376e+02
8               	3.00002859e+02
9               	3.00003607e+02
10              	3.00004350e+02
11              	3.00005088e+02
12              	3.00005705e+02
13              	3.00006176e+02
14              	3.00006704e+02
15              	3.00007122e+02
16              	3.00007773e+02
17              	3.00008396e+02
18              	3.00009111e+02
19              	3.00009926e+02
20              	3.00010592e+02
21              	3.00011351e+02
22              	3.00012060e+02
23              	3.00012815e+02
24              	3.00013505e+02
25              	3.00014272e+02
26              	3.00014951e+02
27              	3.00015765e+02
28              	3.00016651e+02
29              	3.00017330e+02
30              	3.00018370e+02
31              	3.00019457e+02
32              	3.00020463e+02
33              	3.00021473e+02
34              	3.00022498e+02
35              	3.00023455e+02
36              	3.00024439e+02
37              	3.00025441e+02
38              	3.00026207e+02
39              	3.00027104e+02
40              	3.00028058e+02
41              	3.00028920e+02
42              	3.00030095e+02
43              	3.00031017e+02
44              	3.00032145e+02
45              	3.00033226e+02
46              	3.00034365e+02
47              	3.00035896e+02
48              	3.00037072e+02
49              	3.00038970e+02
50              	3.00040494e+02
51              	3.00041615e+02
52              	3.00043639e+02
53              	3.00045076e+02
54              	3.00046759e+02
55              	3.00048608e+02
56              	3.00050432e+02
57              	3.00051611e+02
58              	3.00052900e+02
59              	3.00052875e+02
60              	3.00054070e+02
61              	3.00055656e+02
62              	3.00056466e+02
63              	3.00058094e+02
64              	3.00059876e+02
65              	3.00061998e+02
66              	3.00063594e+02
67              	3.00064778e+02
68              	3.00066283e+02
69              	3.00067376e+02
70              	3.00067467e+02
71              	3.00068389e+02
72              	3.00070735e+02
73              	3.00078176e+02
74              	3.00081338e+02
75              	3.00084616e+02
76              	3.00086408e+02
77              	3.00088758e+02
78              	3.00092176e+02
79              	3.00093591e+02
80              	3.00097170e+02
81              	3.00103283e+02
82              	3.00117847e+02
83              	3.00130187e+02
84              	3.00142800e+02
85              	3.00153614e+02
86              	3.00162918e+02
87              	3.00169415e+02
88              	3.00176454e+02
89              	3.00178874e+02
90              	3.00185191e+02
91              	3.00188174e+02
92              	3.00188348e+02
93              	3.00189539e+02
94              	3.00185423e+02
95              	3.00178721e+02
96              	3.00176939e+02
97              	3.00180241e+02
98              	3.00181510e+02
99              	3.00172385e+02
100             	3.00169769e+02
101             	3.00288980e+02
102             	3.00397752e+02
103             	3.00491985e+02
104             	3.00606834e+02
105             	3.01100603e+02
106             	3.01933534e+02
107             	3.02805638e+02
108             	3.02980045e+02
109             	3.03799591e+02
110             	3.05300078e+02
111             	3.08221612e+02
112             	3.09467209e+02
113             	3.11078238e+02
114             	3.11439739e+02
115             	3.13339655e+02
116             	3.13927255e+02
117             	3.14436355e+02
118             	2.95135683e+02
119             	6.14032819e+02
120             	9.16471312e+02
121             	1.31558708e+03
122             	2.13101143e+03
123             	1.85749312e+03
124             	2.25383632e+03
125             	2.40064627e+03
126             	1.98779707e+03
