# Region        : cellZone component_1
# Cells         : 184
# Volume        : 3.70120544e-01
# Time          	volAverage(T)
1               	3.00211681e+02
2               	3.00420673e+02
3               	3.00617057e+02
4               	3.00804888e+02
5               	3.00987454e+02
6               	3.01166062e+02
7               	3.01341587e+02
8               	3.01514559e+02
9               	3.01685275e+02
10              	3.01853944e+02
11              	3.02020690e+02
12              	3.02185742e+02
13              	3.02349347e+02
14              	3.02511470e+02
15              	3.02673361e+02
16              	3.02835108e+02
17              	3.02993127e+02
18              	3.03145609e+02
19              	3.03298360e+02
20              	3.03448519e+02
21              	3.03592796e+02
22              	3.03732101e+02
23              	3.03864917e+02
24              	3.03992837e+02
25              	3.04117346e+02
26              	3.04240980e+02
27              	3.04362235e+02
28              	3.04481767e+02
29              	3.04603329e+02
30              	3.04717195e+02
31              	3.04823928e+02
32              	3.04921479e+02
33              	3.05019527e+02
34              	3.05128252e+02
35              	3.05234964e+02
36              	3.05338715e+02
37              	3.05436272e+02
38              	3.05531393e+02
39              	3.05624819e+02
40              	3.05718775e+02
41              	3.05812257e+02
42              	3.05908467e+02
43              	3.06009030e+02
44              	3.06109221e+02
45              	3.06203572e+02
46              	3.06290244e+02
47              	3.06368433e+02
48              	3.06444831e+02
49              	3.06525471e+02
50              	3.06603078e+02
51              	3.06678889e+02
52              	3.06750144e+02
53              	3.06819104e+02
54              	3.06884484e+02
55              	3.06948417e+02
56              	3.07015763e+02
57              	3.07088882e+02
58              	3.07161877e+02
59              	3.07236420e+02
60              	3.07309021e+02
61              	3.07378471e+02
62              	3.07438720e+02
63              	3.07493851e+02
64              	3.07543579e+02
65              	3.07587679e+02
66              	3.07638917e+02
67              	3.07690737e+02
68              	3.07745533e+02
69              	3.07801662e+02
70              	3.07855626e+02
71              	3.07907852e+02
72              	3.07961374e+02
73              	3.08017454e+02
74              	3.08078903e+02
75              	3.08134497e+02
76              	3.08183324e+02
77              	3.08225818e+02
78              	3.08261529e+02
79              	3.08288315e+02
80              	3.08317818e+02
81              	3.08348019e+02
82              	3.08377838e+02
83              	3.08406523e+02
84              	3.08434364e+02
85              	3.08461280e+02
86              	3.08487754e+02
87              	3.08513397e+02
88              	3.08538646e+02
89              	3.08563258e+02
90              	3.08588566e+02
91              	3.08614557e+02
92              	3.08641055e+02
93              	3.08667298e+02
94              	3.08693552e+02
95              	3.08719107e+02
96              	3.08744146e+02
97              	3.08768182e+02
98              	3.08791662e+02
99              	3.08814377e+02
100             	3.08836086e+02
101             	3.08856872e+02
102             	3.08876697e+02
103             	3.08895947e+02
104             	3.08914780e+02
105             	3.08932928e+02
106             	3.08950536e+02
107             	3.08967491e+02
108             	3.08983945e+02
109             	3.09000079e+02
110             	3.09015990e+02
111             	3.09031416e+02
112             	3.09047140e+02
113             	3.09062871e+02
114             	3.09078562e+02
115             	3.09094207e+02
116             	3.09109743e+02
117             	3.09124826e+02
118             	3.09139622e+02
119             	3.09154033e+02
120             	3.09167793e+02
121             	3.09180879e+02
122             	3.09193196e+02
123             	3.09204717e+02
124             	3.09195567e+02
125             	3.09181082e+02
126             	3.09169942e+02
127             	3.09167438e+02
128             	3.09166867e+02
129             	3.09166984e+02
130             	3.09167578e+02
131             	3.09178673e+02
132             	3.09195626e+02
133             	3.09214131e+02
134             	3.09234155e+02
135             	3.09255205e+02
136             	3.09277300e+02
137             	3.09299944e+02
138             	3.09323475e+02
139             	3.09348334e+02
140             	3.09373614e+02
141             	3.09399270e+02
142             	3.09423309e+02
143             	3.09446876e+02
144             	3.09469544e+02
145             	3.09492757e+02
146             	3.09516430e+02
147             	3.09540363e+02
148             	3.09568413e+02
149             	3.09599258e+02
150             	3.09631177e+02
151             	3.09662677e+02
152             	3.09693681e+02
153             	3.09722685e+02
154             	3.09750258e+02
155             	3.09776354e+02
156             	3.09799849e+02
157             	3.09822411e+02
158             	3.09844342e+02
159             	3.09865887e+02
160             	3.09888796e+02
161             	3.09913523e+02
162             	3.09937643e+02
163             	3.09960852e+02
164             	3.09984957e+02
165             	3.10007971e+02
166             	3.10033751e+02
167             	3.10061844e+02
168             	3.10090641e+02
169             	3.10118980e+02
170             	3.10146029e+02
171             	3.10171175e+02
172             	3.10194640e+02
173             	3.10216925e+02
174             	3.10238243e+02
175             	3.10258829e+02
176             	3.10280411e+02
177             	3.10303368e+02
178             	3.10323555e+02
179             	3.10344943e+02
180             	3.10361406e+02
181             	3.10382568e+02
182             	3.10400860e+02
183             	3.10422208e+02
184             	3.10444200e+02
185             	3.10464757e+02
186             	3.10484400e+02
187             	3.10503234e+02
188             	3.10521312e+02
189             	3.10538830e+02
190             	3.10555485e+02
191             	3.10571296e+02
192             	3.10587326e+02
193             	3.10603636e+02
194             	3.10619584e+02
195             	3.10635883e+02
196             	3.10653703e+02
197             	3.10671963e+02
198             	3.10690563e+02
199             	3.10709318e+02
200             	3.10725165e+02
201             	3.10739646e+02
202             	3.10756941e+02
203             	3.10775639e+02
204             	3.10794288e+02
205             	3.10811307e+02
206             	3.10829198e+02
207             	3.10845493e+02
208             	3.10859195e+02
209             	3.10870931e+02
210             	3.10882630e+02
211             	3.10896720e+02
212             	3.10913641e+02
213             	3.10931579e+02
214             	3.10946258e+02
215             	3.10962394e+02
216             	3.10979375e+02
217             	3.10995328e+02
218             	3.11010475e+02
219             	3.11024372e+02
220             	3.11038514e+02
221             	3.11052157e+02
222             	3.11065434e+02
223             	3.11079070e+02
224             	3.11091490e+02
225             	3.11103855e+02
226             	3.11115230e+02
227             	3.11125910e+02
228             	3.11136546e+02
229             	3.11147145e+02
230             	3.11157177e+02
231             	3.11166892e+02
232             	3.11176388e+02
233             	3.11185900e+02
234             	3.11196248e+02
235             	3.11205506e+02
236             	3.11213653e+02
237             	3.11223964e+02
238             	3.11235729e+02
239             	3.11248512e+02
240             	3.11261478e+02
241             	3.11273425e+02
242             	3.11284539e+02
243             	3.11294865e+02
244             	3.11304019e+02
245             	3.11312098e+02
246             	3.11318745e+02
247             	3.11325478e+02
248             	3.11331803e+02
249             	3.11338023e+02
250             	3.11344962e+02
251             	3.11352240e+02
252             	3.11360292e+02
253             	3.11368947e+02
254             	3.11378219e+02
255             	3.11387599e+02
256             	3.11396901e+02
257             	3.11405480e+02
258             	3.11413133e+02
259             	3.11419465e+02
260             	3.11426319e+02
261             	3.11433117e+02
262             	3.11440966e+02
263             	3.11449096e+02
264             	3.11456878e+02
265             	3.11463004e+02
266             	3.11468137e+02
267             	3.11471731e+02
268             	3.11475155e+02
269             	3.11477464e+02
270             	3.11480305e+02
271             	3.11483236e+02
272             	3.11486655e+02
273             	3.11491016e+02
274             	3.11495573e+02
275             	3.11501015e+02
276             	3.11506554e+02
277             	3.11512971e+02
278             	3.11519959e+02
279             	3.11526762e+02
280             	3.11534064e+02
281             	3.11542766e+02
282             	3.11550878e+02
283             	3.11558299e+02
284             	3.11565401e+02
285             	3.11572593e+02
286             	3.11578934e+02
287             	3.11585660e+02
288             	3.11591697e+02
289             	3.11596724e+02
290             	3.11600804e+02
291             	3.11604987e+02
292             	3.11609006e+02
293             	3.11613148e+02
294             	3.11616806e+02
295             	3.11620664e+02
296             	3.11623772e+02
297             	3.11626608e+02
298             	3.11629446e+02
299             	3.11632280e+02
300             	3.11635266e+02
301             	3.11638517e+02
302             	3.11641206e+02
303             	3.11644135e+02
304             	3.11647950e+02
305             	3.11652126e+02
306             	3.11656989e+02
307             	3.11662293e+02
308             	3.11667933e+02
309             	3.11673156e+02
310             	3.11679615e+02
311             	3.11686051e+02
312             	3.11692758e+02
313             	3.11699335e+02
314             	3.11705488e+02
315             	3.11710427e+02
316             	3.11714292e+02
317             	3.11717024e+02
318             	3.11719329e+02
319             	3.11721734e+02
320             	3.11723674e+02
321             	3.11726210e+02
322             	3.11728075e+02
323             	3.11730387e+02
324             	3.11733518e+02
325             	3.11736542e+02
326             	3.11740643e+02
327             	3.11744306e+02
328             	3.11748967e+02
329             	3.11753977e+02
330             	3.11759818e+02
331             	3.11765592e+02
332             	3.11771313e+02
333             	3.11776337e+02
334             	3.11780511e+02
335             	3.11784467e+02
336             	3.11788305e+02
337             	3.11791144e+02
338             	3.11793840e+02
339             	3.11796155e+02
340             	3.11799000e+02
341             	3.11801726e+02
342             	3.11804803e+02
343             	3.11807427e+02
344             	3.11810597e+02
345             	3.11813181e+02
346             	3.11816019e+02
347             	3.11818279e+02
348             	3.11820793e+02
349             	3.11822718e+02
350             	3.11824634e+02
351             	3.11826362e+02
352             	3.11828065e+02
353             	3.11829791e+02
354             	3.11831716e+02
355             	3.11833774e+02
356             	3.11835446e+02
357             	3.11837720e+02
358             	3.11840203e+02
359             	3.11843322e+02
360             	3.11846304e+02
361             	3.11849987e+02
362             	3.11853402e+02
363             	3.11857292e+02
364             	3.11860760e+02
365             	3.11864609e+02
366             	3.11867659e+02
367             	3.11870757e+02
368             	3.11872836e+02
369             	3.11874704e+02
370             	3.11875907e+02
371             	3.11877148e+02
372             	3.11877812e+02
373             	3.11878607e+02
374             	3.11878899e+02
375             	3.11879653e+02
376             	3.11880036e+02
377             	3.11881065e+02
378             	3.11882027e+02
379             	3.11883822e+02
380             	3.11885158e+02
381             	3.11887066e+02
382             	3.11888714e+02
383             	3.11890729e+02
384             	3.11892625e+02
385             	3.11894767e+02
386             	3.11896680e+02
387             	3.11898423e+02
388             	3.11900137e+02
389             	3.11901984e+02
390             	3.11903321e+02
391             	3.11904857e+02
392             	3.11906919e+02
393             	3.11908514e+02
394             	3.11910675e+02
395             	3.11912447e+02
396             	3.11914636e+02
397             	3.11916397e+02
398             	3.11918433e+02
399             	3.11919616e+02
400             	3.11920886e+02
401             	3.11921587e+02
402             	3.11922346e+02
403             	3.11922722e+02
404             	3.11923594e+02
405             	3.11923987e+02
406             	3.11924857e+02
407             	3.11925284e+02
408             	3.11926092e+02
409             	3.11926634e+02
410             	3.11927692e+02
411             	3.11928893e+02
412             	3.11929623e+02
413             	3.11930853e+02
414             	3.11932371e+02
415             	3.11933381e+02
416             	3.11934708e+02
417             	3.11936530e+02
418             	3.11937735e+02
419             	3.11939323e+02
420             	3.11940653e+02
421             	3.11942323e+02
422             	3.11943727e+02
423             	3.11945464e+02
424             	3.11946781e+02
425             	3.11948280e+02
426             	3.11949374e+02
427             	3.11950729e+02
428             	3.11951639e+02
429             	3.11952731e+02
430             	3.11953373e+02
431             	3.11954248e+02
432             	3.11954708e+02
433             	3.11955346e+02
434             	3.11955530e+02
435             	3.11955866e+02
436             	3.11955814e+02
437             	3.11956080e+02
438             	3.11956105e+02
439             	3.11956598e+02
440             	3.11956778e+02
441             	3.11957504e+02
442             	3.11957868e+02
443             	3.11958638e+02
444             	3.11959077e+02
445             	3.11960013e+02
446             	3.11960655e+02
447             	3.11961786e+02
448             	3.11962623e+02
449             	3.11963840e+02
450             	3.11964761e+02
451             	3.11965985e+02
452             	3.11966876e+02
453             	3.11968042e+02
454             	3.11968890e+02
455             	3.11969973e+02
456             	3.11970695e+02
457             	3.11971654e+02
458             	3.11972250e+02
459             	3.11973144e+02
460             	3.11973607e+02
461             	3.11974293e+02
462             	3.11974612e+02
463             	3.11975156e+02
464             	3.11975279e+02
465             	3.11975602e+02
466             	3.11975549e+02
467             	3.11975793e+02
468             	3.11975750e+02
469             	3.11976176e+02
470             	3.11976244e+02
471             	3.11976844e+02
472             	3.11977026e+02
473             	3.11977553e+02
474             	3.11977759e+02
475             	3.11978235e+02
476             	3.11979023e+02
477             	3.11979229e+02
478             	3.11979788e+02
479             	3.11980705e+02
480             	3.11980960e+02
481             	3.11981599e+02
482             	3.11982051e+02
483             	3.11982767e+02
484             	3.11983243e+02
485             	3.11984073e+02
486             	3.11984671e+02
487             	3.11985670e+02
488             	3.11986347e+02
489             	3.11987334e+02
490             	3.11988062e+02
491             	3.11989078e+02
492             	3.11989791e+02
493             	3.11990797e+02
494             	3.11991402e+02
495             	3.11992231e+02
496             	3.11992651e+02
497             	3.11993307e+02
498             	3.11993575e+02
499             	3.11994113e+02
500             	3.11994276e+02
501             	3.11994703e+02
502             	3.11994737e+02
503             	3.11994929e+02
504             	3.11994803e+02
505             	3.11994905e+02
506             	3.11994668e+02
507             	3.11994641e+02
508             	3.11994308e+02
509             	3.11994291e+02
510             	3.11993947e+02
511             	3.11994030e+02
512             	3.11993766e+02
513             	3.11993952e+02
514             	3.11993782e+02
515             	3.11994117e+02
516             	3.11994097e+02
517             	3.11994569e+02
518             	3.11994635e+02
519             	3.11995125e+02
520             	3.11995212e+02
521             	3.11995667e+02
522             	3.11995721e+02
523             	3.11996085e+02
524             	3.11996070e+02
525             	3.11996248e+02
526             	3.11996140e+02
527             	3.11996297e+02
528             	3.11996216e+02
529             	3.11996519e+02
530             	3.11996572e+02
531             	3.11997002e+02
532             	3.11997143e+02
533             	3.11997582e+02
534             	3.11997745e+02
535             	3.11998206e+02
536             	3.11998350e+02
537             	3.11998763e+02
538             	3.11998893e+02
539             	3.11999343e+02
540             	3.11999440e+02
541             	3.11999896e+02
542             	3.11999985e+02
543             	3.12000328e+02
544             	3.12000326e+02
545             	3.12000567e+02
546             	3.12000498e+02
547             	3.12000704e+02
548             	3.12000620e+02
549             	3.12000854e+02
550             	3.12000827e+02
551             	3.12001087e+02
552             	3.12001113e+02
553             	3.12001471e+02
554             	3.12001629e+02
555             	3.12002184e+02
556             	3.12002446e+02
557             	3.12003013e+02
558             	3.12003304e+02
559             	3.12003892e+02
560             	3.12004232e+02
561             	3.12004869e+02
562             	3.12005227e+02
563             	3.12005913e+02
564             	3.12006256e+02
565             	3.12006924e+02
566             	3.12007189e+02
567             	3.12007736e+02
568             	3.12007883e+02
569             	3.12008319e+02
570             	3.12008349e+02
571             	3.12008694e+02
572             	3.12008610e+02
573             	3.12008750e+02
574             	3.12008527e+02
575             	3.12008646e+02
576             	3.12008366e+02
577             	3.12008312e+02
578             	3.12007963e+02
579             	3.12007874e+02
580             	3.12007475e+02
581             	3.12007362e+02
582             	3.12006959e+02
583             	3.12006849e+02
584             	3.12006468e+02
585             	3.12006441e+02
586             	3.12006141e+02
587             	3.12006212e+02
588             	3.12006009e+02
589             	3.12006279e+02
590             	3.12006204e+02
591             	3.12006553e+02
592             	3.12006522e+02
593             	3.12006900e+02
594             	3.12006907e+02
595             	3.12007313e+02
596             	3.12007362e+02
597             	3.12007725e+02
598             	3.12007801e+02
599             	3.12008314e+02
600             	3.12008534e+02
601             	3.12009050e+02
602             	3.12009228e+02
603             	3.12009695e+02
604             	3.12009894e+02
605             	3.12010364e+02
606             	3.12010555e+02
607             	3.12010968e+02
608             	3.12011729e+02
609             	3.12011756e+02
610             	3.12011973e+02
611             	3.12011993e+02
612             	3.12012254e+02
613             	3.12012257e+02
614             	3.12012517e+02
615             	3.12012448e+02
616             	3.12012679e+02
617             	3.12012596e+02
618             	3.12012895e+02
619             	3.12012888e+02
620             	3.12013287e+02
621             	3.12013364e+02
622             	3.12013877e+02
623             	3.12013976e+02
624             	3.12014431e+02
625             	3.12014470e+02
626             	3.12014747e+02
627             	3.12014688e+02
628             	3.12014902e+02
629             	3.12014833e+02
630             	3.12015045e+02
631             	3.12014960e+02
632             	3.12015226e+02
633             	3.12015178e+02
634             	3.12015506e+02
635             	3.12015494e+02
636             	3.12015831e+02
637             	3.12015859e+02
638             	3.12016190e+02
639             	3.12016246e+02
640             	3.12016594e+02
641             	3.12016673e+02
642             	3.12017104e+02
643             	3.12017196e+02
644             	3.12017634e+02
645             	3.12017680e+02
646             	3.12018015e+02
647             	3.12017978e+02
648             	3.12018232e+02
649             	3.12018105e+02
650             	3.12018273e+02
651             	3.12018066e+02
652             	3.12018211e+02
653             	3.12017952e+02
654             	3.12017963e+02
655             	3.12017634e+02
656             	3.12017585e+02
657             	3.12017220e+02
658             	3.12017139e+02
659             	3.12016766e+02
660             	3.12016712e+02
661             	3.12016399e+02
662             	3.12016415e+02
663             	3.12016189e+02
664             	3.12016337e+02
665             	3.12016269e+02
666             	3.12016613e+02
667             	3.12016710e+02
668             	3.12017172e+02
669             	3.12017330e+02
670             	3.12017789e+02
671             	3.12017996e+02
672             	3.12018549e+02
673             	3.12018784e+02
674             	3.12019301e+02
675             	3.12019490e+02
676             	3.12019927e+02
677             	3.12020019e+02
678             	3.12020339e+02
679             	3.12020347e+02
680             	3.12020621e+02
681             	3.12020602e+02
682             	3.12020865e+02
683             	3.12020811e+02
684             	3.12021054e+02
685             	3.12020972e+02
686             	3.12021181e+02
687             	3.12021056e+02
688             	3.12021215e+02
689             	3.12021056e+02
690             	3.12021197e+02
691             	3.12021009e+02
692             	3.12021122e+02
693             	3.12020915e+02
694             	3.12021013e+02
695             	3.12020784e+02
696             	3.12020826e+02
697             	3.12020537e+02
698             	3.12020549e+02
699             	3.12020235e+02
700             	3.12020254e+02
701             	3.12019941e+02
702             	3.12019954e+02
703             	3.12019640e+02
704             	3.12019690e+02
705             	3.12019437e+02
706             	3.12019637e+02
707             	3.12019452e+02
708             	3.12019585e+02
709             	3.12019387e+02
710             	3.12019600e+02
711             	3.12019445e+02
712             	3.12019584e+02
713             	3.12019425e+02
714             	3.12019607e+02
715             	3.12019485e+02
716             	3.12019659e+02
717             	3.12019545e+02
718             	3.12019747e+02
719             	3.12019634e+02
720             	3.12019828e+02
721             	3.12019702e+02
722             	3.12019865e+02
723             	3.12019714e+02
724             	3.12019851e+02
725             	3.12019664e+02
726             	3.12019764e+02
727             	3.12019539e+02
728             	3.12019633e+02
729             	3.12019393e+02
730             	3.12019476e+02
731             	3.12019265e+02
732             	3.12019382e+02
733             	3.12019190e+02
734             	3.12019314e+02
735             	3.12019116e+02
736             	3.12019205e+02
737             	3.12019002e+02
738             	3.12019096e+02
739             	3.12018930e+02
740             	3.12019110e+02
741             	3.12019066e+02
742             	3.12019403e+02
743             	3.12019451e+02
744             	3.12019795e+02
745             	3.12019820e+02
746             	3.12020146e+02
747             	3.12020153e+02
748             	3.12020423e+02
749             	3.12020356e+02
750             	3.12020514e+02
751             	3.12020314e+02
752             	3.12020385e+02
753             	3.12020175e+02
754             	3.12020261e+02
755             	3.12019985e+02
756             	3.12020079e+02
757             	3.12019794e+02
758             	3.12019845e+02
759             	3.12019522e+02
760             	3.12019574e+02
761             	3.12019237e+02
762             	3.12019189e+02
763             	3.12018829e+02
764             	3.12018864e+02
765             	3.12018575e+02
766             	3.12018604e+02
767             	3.12018386e+02
768             	3.12018546e+02
769             	3.12018433e+02
770             	3.12018714e+02
771             	3.12018698e+02
772             	3.12019061e+02
773             	3.12019051e+02
774             	3.12019379e+02
775             	3.12019365e+02
776             	3.12019614e+02
777             	3.12019499e+02
778             	3.12019651e+02
779             	3.12019447e+02
780             	3.12019500e+02
781             	3.12019184e+02
782             	3.12019200e+02
783             	3.12018852e+02
784             	3.12018862e+02
785             	3.12018483e+02
786             	3.12018455e+02
787             	3.12018134e+02
788             	3.12018263e+02
789             	3.12018024e+02
790             	3.12018117e+02
791             	3.12017882e+02
792             	3.12018009e+02
793             	3.12017833e+02
794             	3.12017976e+02
795             	3.12017854e+02
796             	3.12018103e+02
797             	3.12018042e+02
798             	3.12018315e+02
799             	3.12018321e+02
800             	3.12018664e+02
801             	3.12018719e+02
802             	3.12019080e+02
803             	3.12019109e+02
804             	3.12019487e+02
805             	3.12019555e+02
806             	3.12019924e+02
807             	3.12019952e+02
808             	3.12020234e+02
809             	3.12020167e+02
810             	3.12020340e+02
811             	3.12020187e+02
812             	3.12020355e+02
813             	3.12020220e+02
814             	3.12020421e+02
815             	3.12020327e+02
816             	3.12020554e+02
817             	3.12020460e+02
818             	3.12020716e+02
819             	3.12020652e+02
820             	3.12020927e+02
821             	3.12020867e+02
822             	3.12021132e+02
823             	3.12021057e+02
824             	3.12021300e+02
825             	3.12021191e+02
826             	3.12021385e+02
827             	3.12021225e+02
828             	3.12021348e+02
829             	3.12021118e+02
830             	3.12021179e+02
831             	3.12020916e+02
832             	3.12020956e+02
833             	3.12020681e+02
834             	3.12020732e+02
835             	3.12020490e+02
836             	3.12020602e+02
837             	3.12020409e+02
838             	3.12020563e+02
839             	3.12020401e+02
840             	3.12020585e+02
841             	3.12020449e+02
842             	3.12020642e+02
843             	3.12020507e+02
844             	3.12020701e+02
845             	3.12020589e+02
846             	3.12020813e+02
847             	3.12020713e+02
848             	3.12020880e+02
849             	3.12020744e+02
850             	3.12020915e+02
851             	3.12020772e+02
852             	3.12020921e+02
853             	3.12020738e+02
854             	3.12020845e+02
855             	3.12020623e+02
856             	3.12020696e+02
857             	3.12020449e+02
858             	3.12020521e+02
859             	3.12020260e+02
860             	3.12020308e+02
861             	3.12020019e+02
862             	3.12020047e+02
863             	3.12019748e+02
864             	3.12019735e+02
865             	3.12019448e+02
866             	3.12019464e+02
867             	3.12019238e+02
868             	3.12019352e+02
869             	3.12019245e+02
870             	3.12019484e+02
871             	3.12019485e+02
872             	3.12019878e+02
873             	3.12019935e+02
874             	3.12020355e+02
875             	3.12020421e+02
876             	3.12020817e+02
877             	3.12020809e+02
878             	3.12021053e+02
879             	3.12020884e+02
880             	3.12021001e+02
881             	3.12020741e+02
882             	3.12020740e+02
883             	3.12020420e+02
884             	3.12020396e+02
885             	3.12020064e+02
886             	3.12020046e+02
887             	3.12019745e+02
888             	3.12019784e+02
889             	3.12019586e+02
890             	3.12019715e+02
891             	3.12019560e+02
892             	3.12019756e+02
893             	3.12019664e+02
894             	3.12019919e+02
895             	3.12019887e+02
896             	3.12020217e+02
897             	3.12020243e+02
898             	3.12020625e+02
899             	3.12020672e+02
900             	3.12021043e+02
901             	3.12021023e+02
902             	3.12021294e+02
903             	3.12021202e+02
904             	3.12021386e+02
905             	3.12021217e+02
906             	3.12021354e+02
907             	3.12021148e+02
908             	3.12021238e+02
909             	3.12020980e+02
910             	3.12021032e+02
911             	3.12020764e+02
912             	3.12020819e+02
913             	3.12020553e+02
914             	3.12020624e+02
915             	3.12020409e+02
916             	3.12020581e+02
917             	3.12020469e+02
918             	3.12020728e+02
919             	3.12020679e+02
920             	3.12020964e+02
921             	3.12020969e+02
922             	3.12021295e+02
923             	3.12021295e+02
924             	3.12021595e+02
925             	3.12021578e+02
926             	3.12021836e+02
927             	3.12021748e+02
928             	3.12021878e+02
929             	3.12021696e+02
930             	3.12021809e+02
931             	3.12021585e+02
932             	3.12021674e+02
933             	3.12021436e+02