# Region        : cellZone component_0
# Cells         : 348
# Volume        : 6.66798614e-01
# Time          	volAverage(T)
1               	3.00187544e+02
2               	3.00372943e+02
3               	3.00546895e+02
4               	3.00712403e+02
5               	3.00873173e+02
6               	3.01029948e+02
7               	3.01183599e+02
8               	3.01333881e+02
9               	3.01481320e+02
10              	3.01626561e+02
11              	3.01769461e+02
12              	3.01910153e+02
13              	3.02048695e+02
14              	3.02185991e+02
15              	3.02322656e+02
16              	3.02457491e+02
17              	3.02590631e+02
18              	3.02719117e+02
19              	3.02844196e+02
20              	3.02965867e+02
21              	3.03088018e+02
22              	3.03205809e+02
23              	3.03319478e+02
24              	3.03429542e+02
25              	3.03536497e+02
26              	3.03644478e+02
27              	3.03748326e+02
28              	3.03850123e+02
29              	3.03950815e+02
30              	3.04049568e+02
31              	3.04146979e+02
32              	3.04242887e+02
33              	3.04337815e+02
34              	3.04428669e+02
35              	3.04519316e+02
36              	3.04608475e+02
37              	3.04695461e+02
38              	3.04782822e+02
39              	3.04868745e+02
40              	3.04953006e+02
41              	3.05035714e+02
42              	3.05116791e+02
43              	3.05195685e+02
44              	3.05273584e+02
45              	3.05351715e+02
46              	3.05427990e+02
47              	3.05502615e+02
48              	3.05575307e+02
49              	3.05648963e+02
50              	3.05721608e+02
51              	3.05793033e+02
52              	3.05861889e+02
53              	3.05930067e+02
54              	3.05996729e+02
55              	3.06065388e+02
56              	3.06131861e+02
57              	3.06197131e+02
58              	3.06261134e+02
59              	3.06323020e+02
60              	3.06383420e+02
61              	3.06443162e+02
62              	3.06501493e+02
63              	3.06559428e+02
64              	3.06617066e+02
65              	3.06673492e+02
66              	3.06728614e+02
67              	3.06783617e+02
68              	3.06836330e+02
69              	3.06888624e+02
70              	3.06938907e+02
71              	3.06987679e+02
72              	3.07035591e+02
73              	3.07082621e+02
74              	3.07128716e+02
75              	3.07174019e+02
76              	3.07218305e+02
77              	3.07261814e+02
78              	3.07304623e+02
79              	3.07346859e+02
80              	3.07388271e+02
81              	3.07429023e+02
82              	3.07469018e+02
83              	3.07508508e+02
84              	3.07546597e+02
85              	3.07584044e+02
86              	3.07620696e+02
87              	3.07656803e+02
88              	3.07692375e+02
89              	3.07727556e+02
90              	3.07762673e+02
91              	3.07797281e+02
92              	3.07831314e+02
93              	3.07864982e+02
94              	3.07898875e+02
95              	3.07932158e+02
96              	3.07965690e+02
97              	3.07999105e+02
98              	3.08032216e+02
99              	3.08064969e+02
100             	3.08098520e+02
101             	3.08130960e+02
102             	3.08162340e+02
103             	3.08193075e+02
104             	3.08222080e+02
105             	3.08249659e+02
106             	3.08275714e+02
107             	3.08300845e+02
108             	3.08325593e+02
109             	3.08350548e+02
110             	3.08375482e+02
111             	3.08400517e+02
112             	3.08425840e+02
113             	3.08451535e+02
114             	3.08477448e+02
115             	3.08503493e+02
116             	3.08529428e+02
117             	3.08554920e+02
118             	3.08579927e+02
119             	3.08604768e+02
120             	3.08628882e+02
121             	3.08652614e+02
122             	3.08675894e+02
123             	3.08699486e+02
124             	3.08723139e+02
125             	3.08747305e+02
126             	3.08772655e+02
127             	3.08799852e+02
128             	3.08826949e+02
129             	3.08854831e+02
130             	3.08882132e+02
131             	3.08909621e+02
132             	3.08936264e+02
133             	3.08961846e+02
134             	3.08985837e+02
135             	3.09008582e+02
136             	3.09030804e+02
137             	3.09051789e+02
138             	3.09072759e+02
139             	3.09094210e+02
140             	3.09116195e+02
141             	3.09138141e+02
142             	3.09159914e+02
143             	3.09181100e+02
144             	3.09201364e+02
145             	3.09220074e+02
146             	3.09237861e+02
147             	3.09254796e+02
148             	3.09271295e+02
149             	3.09288959e+02
150             	3.09305230e+02
151             	3.09321644e+02
152             	3.09337947e+02
153             	3.09354345e+02
154             	3.09370695e+02
155             	3.09386965e+02
156             	3.09403550e+02
157             	3.09420041e+02
158             	3.09436200e+02
159             	3.09452098e+02
160             	3.09467945e+02
161             	3.09483610e+02
162             	3.09499019e+02
163             	3.09514356e+02
164             	3.09529693e+02
165             	3.09544734e+02
166             	3.09558925e+02
167             	3.09572501e+02
168             	3.09585005e+02
169             	3.09596426e+02
170             	3.09606776e+02
171             	3.09616390e+02
172             	3.09625518e+02
173             	3.09634767e+02
174             	3.09644244e+02
175             	3.09654633e+02
176             	3.09666036e+02
177             	3.09678180e+02
178             	3.09690985e+02
179             	3.09703154e+02
180             	3.09715929e+02
181             	3.09727756e+02
182             	3.09738055e+02
183             	3.09747677e+02
184             	3.09757268e+02
185             	3.09767179e+02
186             	3.09777072e+02
187             	3.09786702e+02
188             	3.09796963e+02
189             	3.09807410e+02
190             	3.09817898e+02
191             	3.09828488e+02
192             	3.09839149e+02
193             	3.09850173e+02
194             	3.09861597e+02
195             	3.09872755e+02
196             	3.09883930e+02
197             	3.09894811e+02
198             	3.09905222e+02
199             	3.09915579e+02
200             	3.09925763e+02
201             	3.09935669e+02
202             	3.09945463e+02
203             	3.09955442e+02
204             	3.09965939e+02
205             	3.09976958e+02
206             	3.09988641e+02
207             	3.10001212e+02
208             	3.10014427e+02
209             	3.10027829e+02
210             	3.10041451e+02
211             	3.10055279e+02
212             	3.10070316e+02
213             	3.10086200e+02
214             	3.10102336e+02
215             	3.10116530e+02
216             	3.10129847e+02
217             	3.10142106e+02
218             	3.10153583e+02
219             	3.10164048e+02
220             	3.10173764e+02
221             	3.10182624e+02
222             	3.10190672e+02
223             	3.10198154e+02
224             	3.10205535e+02
225             	3.10212751e+02
226             	3.10219995e+02
227             	3.10227805e+02
228             	3.10236173e+02
229             	3.10245354e+02
230             	3.10255295e+02
231             	3.10265191e+02
232             	3.10273853e+02
233             	3.10282473e+02
234             	3.10292005e+02
235             	3.10300767e+02
236             	3.10308617e+02
237             	3.10315685e+02
238             	3.10322040e+02
239             	3.10327394e+02
240             	3.10331958e+02
241             	3.10337031e+02
242             	3.10342434e+02
243             	3.10347473e+02
244             	3.10352409e+02
245             	3.10357798e+02
246             	3.10365257e+02
247             	3.10372213e+02
248             	3.10377772e+02
249             	3.10383457e+02
250             	3.10389700e+02
251             	3.10395862e+02
252             	3.10401586e+02
253             	3.10406816e+02
254             	3.10411586e+02
255             	3.10416513e+02
256             	3.10421730e+02
257             	3.10426933e+02
258             	3.10432159e+02
259             	3.10437624e+02
260             	3.10443387e+02
261             	3.10449369e+02
262             	3.10455335e+02
263             	3.10462131e+02
264             	3.10469014e+02
265             	3.10476350e+02
266             	3.10484028e+02
267             	3.10491138e+02
268             	3.10498267e+02
269             	3.10505199e+02
270             	3.10511859e+02
271             	3.10518187e+02
272             	3.10524184e+02
273             	3.10529621e+02
274             	3.10534309e+02
275             	3.10538402e+02
276             	3.10542922e+02
277             	3.10547058e+02
278             	3.10550741e+02
279             	3.10554197e+02
280             	3.10558422e+02
281             	3.10563687e+02
282             	3.10568752e+02
283             	3.10572912e+02
284             	3.10577205e+02
285             	3.10581682e+02
286             	3.10585694e+02
287             	3.10589021e+02
288             	3.10591633e+02
289             	3.10593564e+02
290             	3.10595760e+02
291             	3.10598075e+02
292             	3.10600494e+02
293             	3.10603233e+02
294             	3.10606842e+02
295             	3.10611454e+02
296             	3.10615309e+02
297             	3.10619261e+02
298             	3.10622830e+02
299             	3.10626818e+02
300             	3.10630460e+02
301             	3.10633618e+02
302             	3.10636312e+02
303             	3.10638471e+02
304             	3.10640283e+02
305             	3.10642940e+02
306             	3.10645619e+02
307             	3.10648363e+02
308             	3.10651404e+02
309             	3.10655547e+02
310             	3.10660041e+02
311             	3.10663921e+02
312             	3.10667941e+02
313             	3.10672548e+02
314             	3.10677052e+02
315             	3.10681102e+02
316             	3.10684684e+02
317             	3.10687818e+02
318             	3.10690569e+02
319             	3.10692921e+02
320             	3.10695103e+02
321             	3.10696961e+02
322             	3.10698561e+02
323             	3.10699925e+02
324             	3.10701094e+02
325             	3.10702106e+02
326             	3.10703011e+02
327             	3.10703949e+02
328             	3.10705030e+02
329             	3.10706398e+02
330             	3.10708133e+02
331             	3.10710500e+02
332             	3.10713384e+02
333             	3.10716242e+02
334             	3.10718573e+02
335             	3.10720636e+02
336             	3.10722821e+02
337             	3.10724787e+02
338             	3.10726322e+02
339             	3.10727439e+02
340             	3.10728272e+02
341             	3.10729071e+02
342             	3.10730233e+02
343             	3.10731310e+02
344             	3.10732380e+02
345             	3.10733688e+02
346             	3.10735097e+02
347             	3.10736331e+02
348             	3.10737933e+02
349             	3.10739734e+02
350             	3.10741540e+02
351             	3.10743359e+02
352             	3.10745520e+02
353             	3.10748098e+02
354             	3.10751158e+02
355             	3.10754065e+02
356             	3.10756479e+02
357             	3.10758919e+02
358             	3.10761285e+02
359             	3.10763409e+02
360             	3.10765178e+02
361             	3.10766440e+02
362             	3.10767239e+02
363             	3.10767820e+02
364             	3.10768649e+02
365             	3.10769646e+02
366             	3.10770515e+02
367             	3.10771479e+02
368             	3.10772848e+02
369             	3.10774456e+02
370             	3.10775416e+02
371             	3.10776595e+02
372             	3.10777721e+02
373             	3.10778553e+02
374             	3.10779014e+02
375             	3.10779131e+02
376             	3.10779177e+02
377             	3.10779648e+02
378             	3.10779931e+02
379             	3.10780277e+02
380             	3.10780870e+02
381             	3.10781771e+02
382             	3.10782847e+02
383             	3.10783864e+02
384             	3.10784652e+02
385             	3.10785644e+02
386             	3.10786705e+02
387             	3.10787913e+02
388             	3.10789532e+02
389             	3.10791512e+02
390             	3.10793395e+02
391             	3.10794895e+02
392             	3.10796458e+02
393             	3.10798006e+02
394             	3.10799521e+02
395             	3.10800627e+02
396             	3.10801332e+02
397             	3.10801654e+02
398             	3.10802145e+02
399             	3.10802684e+02
400             	3.10803446e+02
401             	3.10804061e+02
402             	3.10804692e+02
403             	3.10805563e+02
404             	3.10806705e+02
405             	3.10808189e+02
406             	3.10809362e+02
407             	3.10810420e+02
408             	3.10811660e+02
409             	3.10812870e+02
410             	3.10813931e+02
411             	3.10814688e+02
412             	3.10815027e+02
413             	3.10815100e+02
414             	3.10814870e+02
415             	3.10814802e+02
416             	3.10814694e+02
417             	3.10814412e+02
418             	3.10814057e+02
419             	3.10813768e+02
420             	3.10813602e+02
421             	3.10813570e+02
422             	3.10813756e+02
423             	3.10814163e+02
424             	3.10814630e+02
425             	3.10815307e+02
426             	3.10816045e+02
427             	3.10816717e+02
428             	3.10817486e+02
429             	3.10818288e+02
430             	3.10819089e+02
431             	3.10819841e+02
432             	3.10820437e+02
433             	3.10820889e+02
434             	3.10821197e+02
435             	3.10821363e+02
436             	3.10821394e+02
437             	3.10821300e+02
438             	3.10821086e+02
439             	3.10820748e+02
440             	3.10820356e+02
441             	3.10819936e+02
442             	3.10819584e+02
443             	3.10819230e+02
444             	3.10818898e+02
445             	3.10818625e+02
446             	3.10818439e+02
447             	3.10818353e+02
448             	3.10818382e+02
449             	3.10818542e+02
450             	3.10819041e+02
451             	3.10819725e+02
452             	3.10820398e+02
453             	3.10820968e+02
454             	3.10821356e+02
455             	3.10821819e+02
456             	3.10822257e+02
457             	3.10822570e+02
458             	3.10822718e+02
459             	3.10822713e+02
460             	3.10822669e+02
461             	3.10822750e+02
462             	3.10822871e+02
463             	3.10822988e+02
464             	3.10823142e+02
465             	3.10823366e+02
466             	3.10823585e+02
467             	3.10823896e+02
468             	3.10824284e+02
469             	3.10824704e+02
470             	3.10825150e+02
471             	3.10825622e+02
472             	3.10826124e+02
473             	3.10826676e+02
474             	3.10827345e+02
475             	3.10828037e+02
476             	3.10828716e+02
477             	3.10829348e+02
478             	3.10829862e+02
479             	3.10830215e+02
480             	3.10830535e+02
481             	3.10830767e+02
482             	3.10830869e+02
483             	3.10830831e+02
484             	3.10830687e+02
485             	3.10830470e+02
486             	3.10830279e+02
487             	3.10830154e+02
488             	3.10830034e+02
489             	3.10829959e+02
490             	3.10829982e+02
491             	3.10830130e+02
492             	3.10830401e+02
493             	3.10830627e+02
494             	3.10830881e+02
495             	3.10831176e+02
496             	3.10831466e+02
497             	3.10831732e+02
498             	3.10831958e+02
499             	3.10832134e+02
500             	3.10832251e+02
501             	3.10832320e+02
502             	3.10832368e+02
503             	3.10832378e+02
504             	3.10832351e+02
505             	3.10832301e+02
506             	3.10832241e+02
507             	3.10832174e+02
508             	3.10832037e+02
509             	3.10831904e+02
510             	3.10831797e+02
511             	3.10831689e+02
512             	3.10831603e+02
513             	3.10831551e+02
514             	3.10831546e+02
515             	3.10831574e+02
516             	3.10831654e+02
517             	3.10831788e+02
518             	3.10831963e+02
519             	3.10832183e+02
520             	3.10832446e+02
521             	3.10832743e+02
522             	3.10833071e+02
523             	3.10833407e+02
524             	3.10833730e+02
525             	3.10833984e+02
526             	3.10834235e+02
527             	3.10834470e+02
528             	3.10834669e+02
529             	3.10834821e+02
530             	3.10834940e+02
531             	3.10835045e+02
532             	3.10835143e+02
533             	3.10835238e+02
534             	3.10835311e+02
535             	3.10835376e+02
536             	3.10835495e+02
537             	3.10835619e+02
538             	3.10835757e+02
539             	3.10835928e+02
540             	3.10836137e+02
541             	3.10836377e+02
542             	3.10836643e+02
543             	3.10836932e+02
544             	3.10837240e+02
545             	3.10837596e+02
546             	3.10837966e+02
547             	3.10838318e+02
548             	3.10838625e+02
549             	3.10838928e+02
550             	3.10839221e+02
551             	3.10839487e+02
552             	3.10839716e+02
553             	3.10839907e+02
554             	3.10840064e+02
555             	3.10840186e+02
556             	3.10840273e+02
557             	3.10840325e+02
558             	3.10840337e+02
559             	3.10840352e+02
560             	3.10840369e+02
561             	3.10840391e+02
562             	3.10840450e+02
563             	3.10840520e+02
564             	3.10840613e+02
565             	3.10840740e+02
566             	3.10840903e+02
567             	3.10841097e+02
568             	3.10841297e+02
569             	3.10841486e+02
570             	3.10841685e+02
571             	3.10841880e+02
572             	3.10842057e+02
573             	3.10842218e+02
574             	3.10842393e+02
575             	3.10842581e+02
576             	3.10842777e+02
577             	3.10842973e+02
578             	3.10843171e+02
579             	3.10843344e+02
580             	3.10843448e+02
581             	3.10843549e+02
582             	3.10843640e+02
583             	3.10843701e+02
584             	3.10843728e+02
585             	3.10843729e+02
586             	3.10843722e+02
587             	3.10843735e+02
588             	3.10843730e+02
589             	3.10843721e+02
590             	3.10843723e+02
591             	3.10843736e+02
592             	3.10843751e+02
593             	3.10843736e+02
594             	3.10843697e+02
595             	3.10843641e+02
596             	3.10843567e+02
597             	3.10843537e+02
598             	3.10843526e+02
599             	3.10843495e+02
600             	3.10843466e+02
601             	3.10843458e+02
602             	3.10843479e+02
603             	3.10843530e+02
604             	3.10843606e+02
605             	3.10843650e+02
606             	3.10843676e+02
607             	3.10843710e+02
608             	3.10843738e+02
609             	3.10843750e+02
610             	3.10843747e+02
611             	3.10843745e+02
612             	3.10843761e+02
613             	3.10843789e+02
614             	3.10843834e+02
615             	3.10843879e+02
616             	3.10843990e+02
617             	3.10844140e+02
618             	3.10844323e+02
619             	3.10844529e+02
620             	3.10844758e+02
621             	3.10845012e+02
622             	3.10845293e+02
623             	3.10845569e+02
624             	3.10845846e+02
625             	3.10846137e+02
626             	3.10846407e+02
627             	3.10846652e+02
628             	3.10846846e+02
629             	3.10847014e+02
630             	3.10847155e+02
631             	3.10847259e+02
632             	3.10847307e+02
633             	3.10847301e+02
634             	3.10847288e+02
635             	3.10847283e+02
636             	3.10847248e+02
637             	3.10847192e+02
638             	3.10847134e+02
639             	3.10847084e+02
640             	3.10847069e+02
641             	3.10847072e+02
642             	3.10847099e+02
643             	3.10847154e+02
644             	3.10847193e+02
645             	3.10847215e+02
646             	3.10847242e+02
647             	3.10847261e+02
648             	3.10847261e+02
649             	3.10847237e+02
650             	3.10847190e+02
651             	3.10847125e+02
652             	3.10847052e+02
653             	3.10846964e+02
654             	3.10846888e+02
655             	3.10846821e+02
656             	3.10846752e+02
657             	3.10846698e+02
658             	3.10846667e+02
659             	3.10846660e+02
660             	3.10846686e+02
661             	3.10846750e+02
662             	3.10846848e+02
663             	3.10846983e+02
664             	3.10847100e+02
665             	3.10847242e+02
666             	3.10847406e+02
667             	3.10847575e+02
668             	3.10847739e+02
669             	3.10847890e+02
670             	3.10848025e+02
671             	3.10848140e+02
672             	3.10848237e+02
673             	3.10848316e+02
674             	3.10848379e+02
675             	3.10848436e+02
676             	3.10848493e+02
677             	3.10848543e+02
678             	3.10848588e+02
679             	3.10848632e+02
680             	3.10848670e+02
681             	3.10848693e+02
682             	3.10848720e+02
683             	3.10848745e+02
684             	3.10848774e+02
685             	3.10848811e+02
686             	3.10848838e+02
687             	3.10848860e+02
688             	3.10848883e+02
689             	3.10848910e+02
690             	3.10848945e+02
691             	3.10848987e+02
692             	3.10849030e+02
693             	3.10849067e+02
694             	3.10849115e+02
695             	3.10849168e+02
696             	3.10849218e+02
697             	3.10849264e+02
698             	3.10849312e+02
699             	3.10849357e+02
700             	3.10849401e+02
701             	3.10849446e+02
702             	3.10849498e+02
703             	3.10849555e+02
704             	3.10849624e+02
705             	3.10849699e+02
706             	3.10849784e+02
707             	3.10849878e+02
708             	3.10849974e+02
709             	3.10850082e+02
710             	3.10850186e+02
711             	3.10850294e+02
712             	3.10850403e+02
713             	3.10850508e+02
714             	3.10850606e+02
715             	3.10850695e+02
716             	3.10850774e+02
717             	3.10850842e+02
718             	3.10850897e+02
719             	3.10850941e+02
720             	3.10850971e+02
721             	3.10850988e+02
722             	3.10850994e+02
723             	3.10850998e+02
724             	3.10850993e+02
725             	3.10850981e+02
726             	3.10850967e+02
727             	3.10850952e+02
728             	3.10850937e+02
729             	3.10850924e+02
730             	3.10850913e+02
731             	3.10850906e+02
732             	3.10850902e+02
733             	3.10850899e+02
734             	3.10850897e+02
735             	3.10850893e+02
736             	3.10850889e+02
737             	3.10850885e+02
738             	3.10850876e+02
739             	3.10850865e+02
740             	3.10850853e+02
741             	3.10850838e+02
742             	3.10850828e+02
743             	3.10850831e+02
744             	3.10850835e+02
745             	3.10850843e+02
746             	3.10850860e+02
747             	3.10850887e+02
748             	3.10850925e+02
749             	3.10850969e+02
750             	3.10851021e+02
751             	3.10851081e+02
752             	3.10851147e+02
753             	3.10851219e+02
754             	3.10851293e+02
755             	3.10851370e+02
756             	3.10851449e+02
757             	3.10851528e+02
758             	3.10851607e+02
759             	3.10851686e+02
760             	3.10851764e+02
761             	3.10851834e+02
762             	3.10851899e+02
763             	3.10851960e+02
764             	3.10852015e+02
765             	3.10852058e+02
766             	3.10852095e+02
767             	3.10852128e+02
768             	3.10852153e+02
769             	3.10852173e+02
770             	3.10852190e+02
771             	3.10852213e+02
772             	3.10852232e+02
773             	3.10852250e+02
774             	3.10852270e+02
775             	3.10852295e+02
776             	3.10852325e+02
777             	3.10852359e+02
778             	3.10852394e+02
779             	3.10852429e+02
780             	3.10852459e+02
781             	3.10852489e+02
782             	3.10852520e+02
783             	3.10852550e+02
784             	3.10852575e+02
785             	3.10852595e+02
786             	3.10852610e+02
787             	3.10852619e+02
788             	3.10852624e+02
789             	3.10852626e+02
790             	3.10852620e+02
791             	3.10852609e+02
792             	3.10852595e+02
793             	3.10852584e+02
794             	3.10852570e+02
795             	3.10852555e+02
796             	3.10852539e+02
797             	3.10852525e+02
798             	3.10852512e+02
799             	3.10852501e+02
800             	3.10852492e+02
801             	3.10852485e+02
802             	3.10852479e+02
803             	3.10852474e+02
804             	3.10852470e+02
805             	3.10852466e+02
806             	3.10852463e+02
807             	3.10852460e+02
808             	3.10852457e+02
809             	3.10852457e+02
810             	3.10852459e+02
811             	3.10852464e+02
812             	3.10852473e+02
813             	3.10852486e+02
814             	3.10852502e+02
815             	3.10852524e+02
816             	3.10852550e+02
817             	3.10852581e+02
818             	3.10852617e+02
819             	3.10852657e+02
820             	3.10852701e+02
821             	3.10852748e+02
822             	3.10852796e+02
823             	3.10852847e+02
824             	3.10852899e+02
825             	3.10852952e+02
826             	3.10853005e+02
827             	3.10853057e+02
828             	3.10853108e+02
829             	3.10853157e+02
830             	3.10853206e+02
831             	3.10853252e+02
832             	3.10853296e+02
833             	3.10853338e+02
834             	3.10853376e+02
835             	3.10853412e+02
836             	3.10853445e+02
837             	3.10853475e+02
838             	3.10853502e+02
839             	3.10853526e+02
840             	3.10853546e+02
841             	3.10853563e+02
842             	3.10853577e+02
843             	3.10853587e+02
844             	3.10853594e+02
845             	3.10853598e+02
846             	3.10853599e+02
847             	3.10853599e+02
848             	3.10853596e+02
849             	3.10853592e+02
850             	3.10853586e+02
851             	3.10853580e+02
852             	3.10853573e+02
853             	3.10853567e+02
854             	3.10853560e+02
855             	3.10853554e+02
856             	3.10853548e+02
857             	3.10853544e+02
858             	3.10853541e+02
859             	3.10853538e+02
860             	3.10853537e+02
861             	3.10853536e+02
862             	3.10853536e+02
863             	3.10853538e+02
864             	3.10853540e+02
865             	3.10853544e+02
866             	3.10853547e+02
867             	3.10853551e+02
868             	3.10853556e+02
869             	3.10853561e+02
870             	3.10853568e+02
871             	3.10853576e+02
872             	3.10853585e+02
873             	3.10853595e+02
874             	3.10853606e+02
875             	3.10853617e+02
876             	3.10853629e+02
877             	3.10853641e+02
878             	3.10853655e+02
879             	3.10853669e+02
880             	3.10853684e+02
881             	3.10853699e+02
882             	3.10853715e+02
883             	3.10853730e+02
884             	3.10853746e+02
885             	3.10853763e+02
886             	3.10853780e+02
887             	3.10853798e+02
888             	3.10853816e+02
889             	3.10853835e+02
890             	3.10853853e+02
891             	3.10853872e+02
892             	3.10853891e+02
893             	3.10853909e+02
894             	3.10853927e+02
895             	3.10853944e+02
896             	3.10853961e+02
897             	3.10853977e+02
898             	3.10853993e+02
899             	3.10854007e+02
900             	3.10854020e+02
901             	3.10854033e+02
902             	3.10854044e+02
903             	3.10854055e+02
904             	3.10854065e+02
905             	3.10854075e+02
906             	3.10854083e+02
907             	3.10854091e+02
908             	3.10854099e+02
909             	3.10854105e+02
910             	3.10854112e+02
911             	3.10854118e+02
912             	3.10854125e+02
913             	3.10854131e+02
914             	3.10854136e+02
915             	3.10854142e+02
916             	3.10854148e+02
917             	3.10854155e+02
918             	3.10854161e+02
919             	3.10854168e+02
920             	3.10854175e+02
921             	3.10854182e+02
922             	3.10854189e+02
923             	3.10854197e+02
924             	3.10854205e+02
925             	3.10854213e+02
926             	3.10854220e+02
927             	3.10854228e+02
928             	3.10854234e+02
929             	3.10854240e+02
930             	3.10854246e+02
931             	3.10854251e+02
932             	3.10854255e+02
933             	3.10854258e+02