# Region        : cellZone fluid
# Cells         : 8393
# Volume        : 1.62906164e+01
# Time          	volAverage(T)
1               	3.00000245e+02
2               	3.00000411e+02
3               	3.00001597e+02
4               	3.00003519e+02
5               	3.00004417e+02
6               	3.00005515e+02
7               	3.00006410e+02
8               	3.00007493e+02
9               	3.00008670e+02
10              	3.00010192e+02
11              	3.00011455e+02
12              	3.00013308e+02
13              	3.00015477e+02
14              	3.00017484e+02
15              	3.00022423e+02
16              	3.00023739e+02
17              	3.00026058e+02
18              	3.00028784e+02
19              	3.00031273e+02
20              	3.00034383e+02
21              	3.00037247e+02
22              	3.00040251e+02
23              	3.00042200e+02
24              	3.00043821e+02
25              	3.00045665e+02
26              	3.00048050e+02
27              	3.00049268e+02
28              	3.00051043e+02
29              	3.00053097e+02
30              	3.00055230e+02
31              	3.00057439e+02
32              	3.00060220e+02
33              	3.00063581e+02
34              	3.00067764e+02
35              	3.00071656e+02
36              	3.00075999e+02
37              	3.00080377e+02
38              	3.00084968e+02
39              	3.00090436e+02
40              	3.00096385e+02
41              	3.00102360e+02
42              	3.00104605e+02
43              	3.00109394e+02
44              	3.00112598e+02
45              	3.00116181e+02
46              	3.00119843e+02
47              	3.00122812e+02
48              	3.00125399e+02
49              	3.00129232e+02
50              	3.00131444e+02
51              	3.00135656e+02
52              	3.00140296e+02
53              	3.00143391e+02
54              	3.00146870e+02
55              	3.00149846e+02
56              	3.00152903e+02
57              	3.00155879e+02
58              	3.00158651e+02
59              	3.00162217e+02
60              	3.00164535e+02
61              	3.00167934e+02
62              	3.00172208e+02
63              	3.00178230e+02
64              	3.00182507e+02
65              	3.00187525e+02
66              	3.00191860e+02
67              	3.00194525e+02
68              	3.00197773e+02
69              	3.00201497e+02
70              	3.00205002e+02
71              	3.00210008e+02
72              	3.00215400e+02
73              	3.00218829e+02
74              	3.00223252e+02
75              	3.00226553e+02
76              	3.00230367e+02
77              	3.00233458e+02
78              	3.00235740e+02
79              	3.00238390e+02
80              	3.00240165e+02
81              	3.00242213e+02
82              	3.00244024e+02
83              	3.00246126e+02
84              	3.00248421e+02
85              	3.00250692e+02
86              	3.00252900e+02
87              	3.00257298e+02
88              	3.00260452e+02
89              	3.00265306e+02
90              	3.00267490e+02
91              	3.00270055e+02
92              	3.00271784e+02
93              	3.00274234e+02
94              	3.00276071e+02
95              	3.00276237e+02
96              	3.00278304e+02
97              	3.00282098e+02
98              	3.00285899e+02
99              	3.00289161e+02
100             	3.00292039e+02
101             	3.00293518e+02
102             	3.00294387e+02
103             	3.00295918e+02
104             	3.00297042e+02
105             	3.00297368e+02
106             	3.00299780e+02
107             	3.00301432e+02
108             	3.00302554e+02
109             	3.00304538e+02
110             	3.00305262e+02
111             	3.00307156e+02
112             	3.00308189e+02
113             	3.00309504e+02
114             	3.00311192e+02
115             	3.00311755e+02
116             	3.00314047e+02
117             	3.00315757e+02
118             	3.00317579e+02
119             	3.00318797e+02
120             	3.00321294e+02
121             	3.00323012e+02
122             	3.00324285e+02
123             	3.00326279e+02
124             	3.00327725e+02
125             	3.00328655e+02
126             	3.00329411e+02
127             	3.00331441e+02
128             	3.00333452e+02
129             	3.00335581e+02
130             	3.00337254e+02
131             	3.00339980e+02
132             	3.00341524e+02
133             	3.00343928e+02
134             	3.00345648e+02
135             	3.00346861e+02
136             	3.00347594e+02
137             	3.00348844e+02
138             	3.00350256e+02
139             	3.00351277e+02
140             	3.00352491e+02
141             	3.00353290e+02
142             	3.00354746e+02
143             	3.00356566e+02
144             	3.00356800e+02
145             	3.00356774e+02
146             	3.00357942e+02
147             	3.00358736e+02
148             	3.00359871e+02
149             	3.00360163e+02
150             	3.00361207e+02
151             	3.00362099e+02
152             	3.00363359e+02
153             	3.00364752e+02
154             	3.00366518e+02
155             	3.00368768e+02
156             	3.00368423e+02
157             	3.00368558e+02
158             	3.00369121e+02
159             	3.00369962e+02
160             	3.00371285e+02
161             	3.00372461e+02
162             	3.00373833e+02
163             	3.00375533e+02
164             	3.00377194e+02
165             	3.00378990e+02
166             	3.00380514e+02
167             	3.00382136e+02
168             	3.00383300e+02
169             	3.00383957e+02
170             	3.00384972e+02
171             	3.00386275e+02
172             	3.00387590e+02
173             	3.00388738e+02
174             	3.00389851e+02
175             	3.00390108e+02
176             	3.00391859e+02
177             	3.00393143e+02
178             	3.00394157e+02
179             	3.00395272e+02
180             	3.00396384e+02
181             	3.00397502e+02
182             	3.00398958e+02
183             	3.00400492e+02
184             	3.00401120e+02
185             	3.00401905e+02
186             	3.00402880e+02
187             	3.00403802e+02
188             	3.00404601e+02
189             	3.00405397e+02
190             	3.00406373e+02
191             	3.00407438e+02
192             	3.00408078e+02
193             	3.00408882e+02
194             	3.00410003e+02
195             	3.00410681e+02
196             	3.00411418e+02
197             	3.00412160e+02
198             	3.00412995e+02
199             	3.00413689e+02
200             	3.00414112e+02
201             	3.00415670e+02
202             	3.00417021e+02
203             	3.00418162e+02
204             	3.00419262e+02
205             	3.00420340e+02
206             	3.00421383e+02
207             	3.00422503e+02
208             	3.00423462e+02
209             	3.00424339e+02
210             	3.00425532e+02
211             	3.00425992e+02
212             	3.00427237e+02
213             	3.00427511e+02
214             	3.00428088e+02
215             	3.00428861e+02
216             	3.00429694e+02
217             	3.00430549e+02
218             	3.00431420e+02
219             	3.00432298e+02
220             	3.00433460e+02
221             	3.00434465e+02
222             	3.00435270e+02
223             	3.00435634e+02
224             	3.00435984e+02
225             	3.00437394e+02
226             	3.00438357e+02
227             	3.00438894e+02
228             	3.00439770e+02
229             	3.00440575e+02
230             	3.00441496e+02
231             	3.00442986e+02
232             	3.00444392e+02
233             	3.00444348e+02
234             	3.00444840e+02
235             	3.00445662e+02
236             	3.00446657e+02
237             	3.00447475e+02
238             	3.00448102e+02
239             	3.00447835e+02
240             	3.00448181e+02
241             	3.00449446e+02
242             	3.00449944e+02
243             	3.00451009e+02
244             	3.00452445e+02
245             	3.00452929e+02
246             	3.00453687e+02
247             	3.00454538e+02
248             	3.00456878e+02
249             	3.00456442e+02
250             	3.00456543e+02
251             	3.00457422e+02
252             	3.00458166e+02
253             	3.00458986e+02
254             	3.00459727e+02
255             	3.00460422e+02
256             	3.00461166e+02
257             	3.00461902e+02
258             	3.00462544e+02
259             	3.00462740e+02
260             	3.00462994e+02
261             	3.00462915e+02
262             	3.00463803e+02
263             	3.00464337e+02
264             	3.00464696e+02
265             	3.00464880e+02
266             	3.00465227e+02
267             	3.00466020e+02
268             	3.00468483e+02
269             	3.00468533e+02
270             	3.00470719e+02
271             	3.00471105e+02
272             	3.00471695e+02
273             	3.00472348e+02
274             	3.00472818e+02
275             	3.00473136e+02
276             	3.00473186e+02
277             	3.00473497e+02
278             	3.00473985e+02
279             	3.00475345e+02
280             	3.00476130e+02
281             	3.00476311e+02
282             	3.00476484e+02
283             	3.00476341e+02
284             	3.00477005e+02
285             	3.00477089e+02
286             	3.00477378e+02
287             	3.00477457e+02
288             	3.00477900e+02
289             	3.00478965e+02
290             	3.00478579e+02
291             	3.00478510e+02
292             	3.00478494e+02
293             	3.00478556e+02
294             	3.00478703e+02
295             	3.00478917e+02
296             	3.00479394e+02
297             	3.00479458e+02
298             	3.00479875e+02
299             	3.00480372e+02
300             	3.00480907e+02
301             	3.00480766e+02
302             	3.00481246e+02
303             	3.00481882e+02
304             	3.00482387e+02
305             	3.00482666e+02
306             	3.00483158e+02
307             	3.00483618e+02
308             	3.00484017e+02
309             	3.00484333e+02
310             	3.00484405e+02
311             	3.00484403e+02
312             	3.00484520e+02
313             	3.00484879e+02
314             	3.00484793e+02
315             	3.00484932e+02
316             	3.00484960e+02
317             	3.00485221e+02
318             	3.00485389e+02
319             	3.00485899e+02
320             	3.00486333e+02
321             	3.00485946e+02
322             	3.00485699e+02
323             	3.00485887e+02
324             	3.00485879e+02
325             	3.00485707e+02
326             	3.00485879e+02
327             	3.00486088e+02
328             	3.00486400e+02
329             	3.00486616e+02
330             	3.00486703e+02
331             	3.00487500e+02
332             	3.00487862e+02
333             	3.00488316e+02
334             	3.00488734e+02
335             	3.00489086e+02
336             	3.00489351e+02
337             	3.00489646e+02
338             	3.00489836e+02
339             	3.00490177e+02
340             	3.00490420e+02
341             	3.00490644e+02
342             	3.00490945e+02
343             	3.00491381e+02
344             	3.00491462e+02
345             	3.00491561e+02
346             	3.00491557e+02
347             	3.00491644e+02
348             	3.00491696e+02
349             	3.00491826e+02
350             	3.00492070e+02
351             	3.00492376e+02
352             	3.00492348e+02
353             	3.00492673e+02
354             	3.00492767e+02
355             	3.00493084e+02
356             	3.00493225e+02
357             	3.00493328e+02
358             	3.00493623e+02
359             	3.00493570e+02
360             	3.00493849e+02
361             	3.00494014e+02
362             	3.00494282e+02
363             	3.00494433e+02
364             	3.00494672e+02
365             	3.00494926e+02
366             	3.00495325e+02
367             	3.00495523e+02
368             	3.00495668e+02
369             	3.00495925e+02
370             	3.00496097e+02
371             	3.00496269e+02
372             	3.00496372e+02
373             	3.00496769e+02
374             	3.00496949e+02
375             	3.00497064e+02
376             	3.00497175e+02
377             	3.00497269e+02
378             	3.00497460e+02
379             	3.00497455e+02
380             	3.00497549e+02
381             	3.00497650e+02
382             	3.00497814e+02
383             	3.00497898e+02
384             	3.00497894e+02
385             	3.00497968e+02
386             	3.00498071e+02
387             	3.00498196e+02
388             	3.00498458e+02
389             	3.00498440e+02
390             	3.00498495e+02
391             	3.00498614e+02
392             	3.00498771e+02
393             	3.00498885e+02
394             	3.00498928e+02
395             	3.00498965e+02
396             	3.00499206e+02
397             	3.00499310e+02
398             	3.00499424e+02
399             	3.00499694e+02
400             	3.00499836e+02
401             	3.00499988e+02
402             	3.00500260e+02
403             	3.00500379e+02
404             	3.00500670e+02
405             	3.00500876e+02
406             	3.00501214e+02
407             	3.00501423e+02
408             	3.00501631e+02
409             	3.00501847e+02
410             	3.00502175e+02
411             	3.00502362e+02
412             	3.00502589e+02
413             	3.00502806e+02
414             	3.00502978e+02
415             	3.00503061e+02
416             	3.00503245e+02
417             	3.00503381e+02
418             	3.00503543e+02
419             	3.00503799e+02
420             	3.00503919e+02
421             	3.00503976e+02
422             	3.00504050e+02
423             	3.00504269e+02
424             	3.00504253e+02
425             	3.00504337e+02
426             	3.00504421e+02
427             	3.00504535e+02
428             	3.00504645e+02
429             	3.00504680e+02
430             	3.00504834e+02
431             	3.00504878e+02
432             	3.00504906e+02
433             	3.00504927e+02
434             	3.00505087e+02
435             	3.00505134e+02
436             	3.00505173e+02
437             	3.00505337e+02
438             	3.00505406e+02
439             	3.00505512e+02
440             	3.00505620e+02
441             	3.00505862e+02
442             	3.00505970e+02
443             	3.00506086e+02
444             	3.00506190e+02
445             	3.00506410e+02
446             	3.00506459e+02
447             	3.00506646e+02
448             	3.00506766e+02
449             	3.00507000e+02
450             	3.00507095e+02
451             	3.00507161e+02
452             	3.00507229e+02
453             	3.00507288e+02
454             	3.00507497e+02
455             	3.00507555e+02
456             	3.00507638e+02
457             	3.00507726e+02
458             	3.00507815e+02
459             	3.00507937e+02
460             	3.00508058e+02
461             	3.00508071e+02
462             	3.00508098e+02
463             	3.00508153e+02
464             	3.00508238e+02
465             	3.00508336e+02
466             	3.00508354e+02
467             	3.00508406e+02
468             	3.00508459e+02
469             	3.00508514e+02
470             	3.00508670e+02
471             	3.00508730e+02
472             	3.00508747e+02
473             	3.00508876e+02
474             	3.00508904e+02
475             	3.00508946e+02
476             	3.00509121e+02
477             	3.00509165e+02
478             	3.00509197e+02
479             	3.00509237e+02
480             	3.00509405e+02
481             	3.00509500e+02
482             	3.00509568e+02
483             	3.00509616e+02
484             	3.00509824e+02
485             	3.00509910e+02
486             	3.00509971e+02
487             	3.00510059e+02
488             	3.00510250e+02
489             	3.00510311e+02
490             	3.00510362e+02
491             	3.00510424e+02
492             	3.00510465e+02
493             	3.00510491e+02
494             	3.00510650e+02
495             	3.00510676e+02
496             	3.00510683e+02
497             	3.00510689e+02
498             	3.00510854e+02
499             	3.00510898e+02
500             	3.00510912e+02
501             	3.00510936e+02
502             	3.00510970e+02
503             	3.00511118e+02
504             	3.00511154e+02
505             	3.00511157e+02
506             	3.00511178e+02
507             	3.00511331e+02
508             	3.00511356e+02
509             	3.00511402e+02
510             	3.00511396e+02
511             	3.00511533e+02
512             	3.00511552e+02
513             	3.00511563e+02
514             	3.00511571e+02
515             	3.00511706e+02
516             	3.00511729e+02
517             	3.00511738e+02
518             	3.00511751e+02
519             	3.00511903e+02
520             	3.00511959e+02
521             	3.00511986e+02
522             	3.00511961e+02
523             	3.00512151e+02
524             	3.00512203e+02
525             	3.00512226e+02
526             	3.00512250e+02
527             	3.00512387e+02
528             	3.00512397e+02
529             	3.00512402e+02
530             	3.00512417e+02
531             	3.00512441e+02
532             	3.00512595e+02
533             	3.00512616e+02
534             	3.00512638e+02
535             	3.00512631e+02
536             	3.00512629e+02
537             	3.00512782e+02
538             	3.00512804e+02
539             	3.00512802e+02
540             	3.00512809e+02
541             	3.00512923e+02
542             	3.00512936e+02
543             	3.00512925e+02
544             	3.00512921e+02
545             	3.00513039e+02
546             	3.00512996e+02
547             	3.00513025e+02
548             	3.00513043e+02
549             	3.00513171e+02
550             	3.00513179e+02
551             	3.00513169e+02
552             	3.00513173e+02
553             	3.00513295e+02
554             	3.00513300e+02
555             	3.00513310e+02
556             	3.00513332e+02
557             	3.00513306e+02
558             	3.00513426e+02
559             	3.00513429e+02
560             	3.00513412e+02
561             	3.00513408e+02
562             	3.00513513e+02
563             	3.00513511e+02
564             	3.00513499e+02
565             	3.00513496e+02
566             	3.00513618e+02
567             	3.00513625e+02
568             	3.00513615e+02
569             	3.00513622e+02
570             	3.00513750e+02
571             	3.00513745e+02
572             	3.00513744e+02
573             	3.00513737e+02
574             	3.00513865e+02
575             	3.00513869e+02
576             	3.00513855e+02
577             	3.00513856e+02
578             	3.00513975e+02
579             	3.00513972e+02
580             	3.00513961e+02
581             	3.00513959e+02
582             	3.00514082e+02
583             	3.00514087e+02
584             	3.00514075e+02
585             	3.00514076e+02
586             	3.00514192e+02
587             	3.00514194e+02
588             	3.00514185e+02
589             	3.00514190e+02
590             	3.00514159e+02
591             	3.00514280e+02
592             	3.00514283e+02
593             	3.00514265e+02
594             	3.00514244e+02
595             	3.00514350e+02
596             	3.00514347e+02
597             	3.00514331e+02
598             	3.00514329e+02
599             	3.00514452e+02
600             	3.00514458e+02
601             	3.00514451e+02
602             	3.00514452e+02
603             	3.00514575e+02
604             	3.00514576e+02
605             	3.00514561e+02
606             	3.00514551e+02
607             	3.00514672e+02
608             	3.00514679e+02
609             	3.00514673e+02
610             	3.00514671e+02
611             	3.00514791e+02
612             	3.00514792e+02
613             	3.00514772e+02
614             	3.00514771e+02
615             	3.00514887e+02
616             	3.00514880e+02
617             	3.00514858e+02
618             	3.00514851e+02
619             	3.00514961e+02
620             	3.00514952e+02
621             	3.00514927e+02
622             	3.00514913e+02
623             	3.00515020e+02
624             	3.00515010e+02
625             	3.00514983e+02
626             	3.00514971e+02
627             	3.00515072e+02
628             	3.00515058e+02
629             	3.00515031e+02
630             	3.00515019e+02
631             	3.00515110e+02
632             	3.00515088e+02
633             	3.00515058e+02
634             	3.00515037e+02
635             	3.00515138e+02
636             	3.00515124e+02
637             	3.00515095e+02
638             	3.00515075e+02
639             	3.00515178e+02
640             	3.00515166e+02
641             	3.00515139e+02
642             	3.00515121e+02
643             	3.00515225e+02
644             	3.00515210e+02
645             	3.00515184e+02
646             	3.00515169e+02
647             	3.00515280e+02
648             	3.00515273e+02
649             	3.00515247e+02
650             	3.00515240e+02
651             	3.00515351e+02
652             	3.00515344e+02
653             	3.00515323e+02
654             	3.00515311e+02
655             	3.00515418e+02
656             	3.00515409e+02
657             	3.00515384e+02
658             	3.00515368e+02
659             	3.00515475e+02
660             	3.00515462e+02
661             	3.00515436e+02
662             	3.00515418e+02
663             	3.00515521e+02
664             	3.00515505e+02
665             	3.00515478e+02
666             	3.00515460e+02
667             	3.00515564e+02
668             	3.00515544e+02
669             	3.00515519e+02
670             	3.00515496e+02
671             	3.00515597e+02
672             	3.00515581e+02
673             	3.00515552e+02
674             	3.00515535e+02
675             	3.00515633e+02
676             	3.00515615e+02
677             	3.00515585e+02
678             	3.00515565e+02
679             	3.00515666e+02
680             	3.00515648e+02
681             	3.00515618e+02
682             	3.00515595e+02
683             	3.00515698e+02
684             	3.00515682e+02
685             	3.00515654e+02
686             	3.00515634e+02
687             	3.00515737e+02
688             	3.00515721e+02
689             	3.00515692e+02
690             	3.00515673e+02
691             	3.00515775e+02
692             	3.00515760e+02
693             	3.00515731e+02
694             	3.00515711e+02
695             	3.00515811e+02
696             	3.00515792e+02
697             	3.00515760e+02
698             	3.00515736e+02
699             	3.00515835e+02
700             	3.00515815e+02
701             	3.00515781e+02
702             	3.00515757e+02
703             	3.00515856e+02
704             	3.00515836e+02
705             	3.00515804e+02
706             	3.00515781e+02
707             	3.00515881e+02
708             	3.00515865e+02
709             	3.00515834e+02
710             	3.00515812e+02
711             	3.00515910e+02
712             	3.00515889e+02
713             	3.00515856e+02
714             	3.00515833e+02
715             	3.00515930e+02
716             	3.00515910e+02
717             	3.00515878e+02
718             	3.00515856e+02
719             	3.00515956e+02
720             	3.00515938e+02
721             	3.00515907e+02
722             	3.00515885e+02
723             	3.00515985e+02
724             	3.00515967e+02
725             	3.00515934e+02
726             	3.00515913e+02
727             	3.00516012e+02
728             	3.00515994e+02
729             	3.00515963e+02
730             	3.00515941e+02
731             	3.00516041e+02
732             	3.00516023e+02
733             	3.00515990e+02
734             	3.00515967e+02
735             	3.00516066e+02
736             	3.00516045e+02
737             	3.00516009e+02
738             	3.00515985e+02
739             	3.00516082e+02
740             	3.00516061e+02
741             	3.00516029e+02
742             	3.00516004e+02
743             	3.00516100e+02
744             	3.00516080e+02
745             	3.00516044e+02
746             	3.00516018e+02
747             	3.00516115e+02
748             	3.00516093e+02
749             	3.00516059e+02
750             	3.00516033e+02
751             	3.00516131e+02
752             	3.00516108e+02
753             	3.00516074e+02
754             	3.00516048e+02
755             	3.00516143e+02
756             	3.00516121e+02
757             	3.00516085e+02
758             	3.00516064e+02
759             	3.00516158e+02
760             	3.00516135e+02
761             	3.00516101e+02
762             	3.00516077e+02
763             	3.00516175e+02
764             	3.00516155e+02
765             	3.00516123e+02
766             	3.00516098e+02
767             	3.00516197e+02
768             	3.00516177e+02
769             	3.00516142e+02
770             	3.00516119e+02
771             	3.00516217e+02
772             	3.00516196e+02
773             	3.00516157e+02
774             	3.00516137e+02
775             	3.00516236e+02
776             	3.00516216e+02
777             	3.00516182e+02
778             	3.00516157e+02
779             	3.00516254e+02
780             	3.00516233e+02
781             	3.00516198e+02
782             	3.00516172e+02
783             	3.00516273e+02
784             	3.00516246e+02
785             	3.00516211e+02
786             	3.00516186e+02
787             	3.00516279e+02
788             	3.00516254e+02
789             	3.00516218e+02
790             	3.00516192e+02
791             	3.00516287e+02
792             	3.00516265e+02
793             	3.00516228e+02
794             	3.00516199e+02
795             	3.00516294e+02
796             	3.00516267e+02
797             	3.00516232e+02
798             	3.00516204e+02
799             	3.00516300e+02
800             	3.00516277e+02
801             	3.00516241e+02
802             	3.00516214e+02
803             	3.00516310e+02
804             	3.00516288e+02
805             	3.00516252e+02
806             	3.00516226e+02
807             	3.00516321e+02
808             	3.00516300e+02
809             	3.00516264e+02
810             	3.00516236e+02
811             	3.00516330e+02
812             	3.00516307e+02
813             	3.00516270e+02
814             	3.00516242e+02
815             	3.00516340e+02
816             	3.00516318e+02
817             	3.00516284e+02
818             	3.00516256e+02
819             	3.00516350e+02
820             	3.00516326e+02
821             	3.00516290e+02
822             	3.00516259e+02
823             	3.00516351e+02
824             	3.00516327e+02
825             	3.00516290e+02
826             	3.00516261e+02
827             	3.00516358e+02
828             	3.00516336e+02
829             	3.00516300e+02
830             	3.00516274e+02
831             	3.00516369e+02
832             	3.00516347e+02
833             	3.00516315e+02
834             	3.00516287e+02
835             	3.00516381e+02
836             	3.00516358e+02
837             	3.00516322e+02
838             	3.00516296e+02
839             	3.00516391e+02
840             	3.00516369e+02
841             	3.00516330e+02
842             	3.00516307e+02
843             	3.00516404e+02
844             	3.00516383e+02
845             	3.00516347e+02
846             	3.00516316e+02
847             	3.00516414e+02
848             	3.00516392e+02
849             	3.00516356e+02
850             	3.00516328e+02
851             	3.00516422e+02
852             	3.00516397e+02
853             	3.00516361e+02
854             	3.00516334e+02
855             	3.00516428e+02
856             	3.00516403e+02
857             	3.00516367e+02
858             	3.00516341e+02
859             	3.00516433e+02
860             	3.00516407e+02
861             	3.00516369e+02
862             	3.00516342e+02
863             	3.00516435e+02
864             	3.00516409e+02
865             	3.00516371e+02
866             	3.00516341e+02
867             	3.00516435e+02
868             	3.00516410e+02
869             	3.00516373e+02
870             	3.00516344e+02
871             	3.00516438e+02
872             	3.00516415e+02
873             	3.00516378e+02
874             	3.00516350e+02
875             	3.00516444e+02
876             	3.00516420e+02
877             	3.00516380e+02
878             	3.00516355e+02
879             	3.00516450e+02
880             	3.00516427e+02
881             	3.00516392e+02
882             	3.00516365e+02
883             	3.00516460e+02
884             	3.00516436e+02
885             	3.00516399e+02
886             	3.00516372e+02
887             	3.00516465e+02
888             	3.00516440e+02
889             	3.00516403e+02
890             	3.00516375e+02
891             	3.00516467e+02
892             	3.00516441e+02
893             	3.00516405e+02
894             	3.00516379e+02
895             	3.00516471e+02
896             	3.00516447e+02
897             	3.00516411e+02
898             	3.00516384e+02
899             	3.00516479e+02
900             	3.00516456e+02
901             	3.00516419e+02
902             	3.00516391e+02
903             	3.00516485e+02
904             	3.00516461e+02
905             	3.00516423e+02
906             	3.00516396e+02
907             	3.00516490e+02
908             	3.00516466e+02
909             	3.00516429e+02
910             	3.00516402e+02
911             	3.00516496e+02
912             	3.00516473e+02
913             	3.00516436e+02
914             	3.00516408e+02
915             	3.00516505e+02
916             	3.00516483e+02
917             	3.00516444e+02
918             	3.00516418e+02
919             	3.00516512e+02
920             	3.00516488e+02
921             	3.00516450e+02
922             	3.00516422e+02
923             	3.00516514e+02
924             	3.00516489e+02
925             	3.00516451e+02
926             	3.00516421e+02
927             	3.00516514e+02
928             	3.00516487e+02
929             	3.00516450e+02
930             	3.00516422e+02
931             	3.00516513e+02
932             	3.00516487e+02
933             	3.00516450e+02