# Region        : cellZone pcb
# Cells         : 546
# Volume        : 1.04635533e+00
# Time          	volAverage(T)
1               	3.00003415e+02
2               	3.00009901e+02
3               	3.00018932e+02
4               	3.00030520e+02
5               	3.00044198e+02
6               	3.00059689e+02
7               	3.00077014e+02
8               	3.00096244e+02
9               	3.00117230e+02
10              	3.00139979e+02
11              	3.00164568e+02
12              	3.00190958e+02
13              	3.00218288e+02
14              	3.00247255e+02
15              	3.00277649e+02
16              	3.00309694e+02
17              	3.00342587e+02
18              	3.00376833e+02
19              	3.00412424e+02
20              	3.00449229e+02
21              	3.00486786e+02
22              	3.00525748e+02
23              	3.00566233e+02
24              	3.00607346e+02
25              	3.00649647e+02
26              	3.00692075e+02
27              	3.00735531e+02
28              	3.00779689e+02
29              	3.00824482e+02
30              	3.00869860e+02
31              	3.00915592e+02
32              	3.00962107e+02
33              	3.01009376e+02
34              	3.01057638e+02
35              	3.01107042e+02
36              	3.01157295e+02
37              	3.01208561e+02
38              	3.01260093e+02
39              	3.01310210e+02
40              	3.01360743e+02
41              	3.01412045e+02
42              	3.01463749e+02
43              	3.01515868e+02
44              	3.01568203e+02
45              	3.01620705e+02
46              	3.01674364e+02
47              	3.01729419e+02
48              	3.01784637e+02
49              	3.01839826e+02
50              	3.01895211e+02
51              	3.01949449e+02
52              	3.02002935e+02
53              	3.02056620e+02
54              	3.02111467e+02
55              	3.02166611e+02
56              	3.02222020e+02
57              	3.02278233e+02
58              	3.02334815e+02
59              	3.02390753e+02
60              	3.02447510e+02
61              	3.02503670e+02
62              	3.02561372e+02
63              	3.02617241e+02
64              	3.02672077e+02
65              	3.02726180e+02
66              	3.02780570e+02
67              	3.02835082e+02
68              	3.02889061e+02
69              	3.02942187e+02
70              	3.02997466e+02
71              	3.03052283e+02
72              	3.03106522e+02
73              	3.03157970e+02
74              	3.03210649e+02
75              	3.03261356e+02
76              	3.03312191e+02
77              	3.03362557e+02
78              	3.03412791e+02
79              	3.03463159e+02
80              	3.03513379e+02
81              	3.03563824e+02
82              	3.03613283e+02
83              	3.03662980e+02
84              	3.03712687e+02
85              	3.03763793e+02
86              	3.03812795e+02
87              	3.03861392e+02
88              	3.03909243e+02
89              	3.03956813e+02
90              	3.04004609e+02
91              	3.04050431e+02
92              	3.04096409e+02
93              	3.04142297e+02
94              	3.04187678e+02
95              	3.04232557e+02
96              	3.04276699e+02
97              	3.04320222e+02
98              	3.04363920e+02
99              	3.04407412e+02
100             	3.04450950e+02
101             	3.04494707e+02
102             	3.04537807e+02
103             	3.04580146e+02
104             	3.04622162e+02
105             	3.04663643e+02
106             	3.04704615e+02
107             	3.04745083e+02
108             	3.04785117e+02
109             	3.04824366e+02
110             	3.04863217e+02
111             	3.04901928e+02
112             	3.04940700e+02
113             	3.04979461e+02
114             	3.05017878e+02
115             	3.05056062e+02
116             	3.05094033e+02
117             	3.05132019e+02
118             	3.05169716e+02
119             	3.05207229e+02
120             	3.05244534e+02
121             	3.05281597e+02
122             	3.05318001e+02
123             	3.05354200e+02
124             	3.05390737e+02
125             	3.05427194e+02
126             	3.05463269e+02
127             	3.05498738e+02
128             	3.05533893e+02
129             	3.05568616e+02
130             	3.05602849e+02
131             	3.05636810e+02
132             	3.05670373e+02
133             	3.05703656e+02
134             	3.05736456e+02
135             	3.05769464e+02
136             	3.05802580e+02
137             	3.05835676e+02
138             	3.05868558e+02
139             	3.05901108e+02
140             	3.05933291e+02
141             	3.05964396e+02
142             	3.05995166e+02
143             	3.06025032e+02
144             	3.06054328e+02
145             	3.06083125e+02
146             	3.06111748e+02
147             	3.06140298e+02
148             	3.06168088e+02
149             	3.06195901e+02
150             	3.06223810e+02
151             	3.06251976e+02
152             	3.06280131e+02
153             	3.06308087e+02
154             	3.06335991e+02
155             	3.06363784e+02
156             	3.06390965e+02
157             	3.06417708e+02
158             	3.06444223e+02
159             	3.06470503e+02
160             	3.06496537e+02
161             	3.06522300e+02
162             	3.06547336e+02
163             	3.06572289e+02
164             	3.06597100e+02
165             	3.06621618e+02
166             	3.06645805e+02
167             	3.06669627e+02
168             	3.06693102e+02
169             	3.06716325e+02
170             	3.06739329e+02
171             	3.06762589e+02
172             	3.06785685e+02
173             	3.06808176e+02
174             	3.06830257e+02
175             	3.06852139e+02
176             	3.06873824e+02
177             	3.06895304e+02
178             	3.06916670e+02
179             	3.06938189e+02
180             	3.06959588e+02
181             	3.06980859e+02
182             	3.07002005e+02
183             	3.07022960e+02
184             	3.07043567e+02
185             	3.07063886e+02
186             	3.07083775e+02
187             	3.07103312e+02
188             	3.07122535e+02
189             	3.07141591e+02
190             	3.07160494e+02
191             	3.07179162e+02
192             	3.07197528e+02
193             	3.07215554e+02
194             	3.07233305e+02
195             	3.07250824e+02
196             	3.07268130e+02
197             	3.07285364e+02
198             	3.07302458e+02
199             	3.07319417e+02
200             	3.07336255e+02
201             	3.07352960e+02
202             	3.07369505e+02
203             	3.07385925e+02
204             	3.07402243e+02
205             	3.07418516e+02
206             	3.07434666e+02
207             	3.07450643e+02
208             	3.07466394e+02
209             	3.07481941e+02
210             	3.07497317e+02
211             	3.07512518e+02
212             	3.07527635e+02
213             	3.07542597e+02
214             	3.07557367e+02
215             	3.07571937e+02
216             	3.07586309e+02
217             	3.07600502e+02
218             	3.07614380e+02
219             	3.07628012e+02
220             	3.07641479e+02
221             	3.07654797e+02
222             	3.07668096e+02
223             	3.07681353e+02
224             	3.07694721e+02
225             	3.07707890e+02
226             	3.07720830e+02
227             	3.07733640e+02
228             	3.07746295e+02
229             	3.07758885e+02
230             	3.07771433e+02
231             	3.07783948e+02
232             	3.07796310e+02
233             	3.07808575e+02
234             	3.07820486e+02
235             	3.07831997e+02
236             	3.07843399e+02
237             	3.07854637e+02
238             	3.07865699e+02
239             	3.07876623e+02
240             	3.07887462e+02
241             	3.07898231e+02
242             	3.07908931e+02
243             	3.07919555e+02
244             	3.07930063e+02
245             	3.07940634e+02
246             	3.07951214e+02
247             	3.07961718e+02
248             	3.07972105e+02
249             	3.07982321e+02
250             	3.07992359e+02
251             	3.08002236e+02
252             	3.08011988e+02
253             	3.08021655e+02
254             	3.08031216e+02
255             	3.08040682e+02
256             	3.08050045e+02
257             	3.08059308e+02
258             	3.08068471e+02
259             	3.08077529e+02
260             	3.08086482e+02
261             	3.08095284e+02
262             	3.08103941e+02
263             	3.08112489e+02
264             	3.08120931e+02
265             	3.08129263e+02
266             	3.08137531e+02
267             	3.08145736e+02
268             	3.08153867e+02
269             	3.08161881e+02
270             	3.08169797e+02
271             	3.08177676e+02
272             	3.08185475e+02
273             	3.08193194e+02
274             	3.08200828e+02
275             	3.08208398e+02
276             	3.08215818e+02
277             	3.08223230e+02
278             	3.08230560e+02
279             	3.08237854e+02
280             	3.08245079e+02
281             	3.08252227e+02
282             	3.08259308e+02
283             	3.08266312e+02
284             	3.08273224e+02
285             	3.08280021e+02
286             	3.08286694e+02
287             	3.08293259e+02
288             	3.08299737e+02
289             	3.08306126e+02
290             	3.08312441e+02
291             	3.08318686e+02
292             	3.08324877e+02
293             	3.08330993e+02
294             	3.08337068e+02
295             	3.08343109e+02
296             	3.08349110e+02
297             	3.08355057e+02
298             	3.08360951e+02
299             	3.08366791e+02
300             	3.08372616e+02
301             	3.08378435e+02
302             	3.08384178e+02
303             	3.08389848e+02
304             	3.08395404e+02
305             	3.08400960e+02
306             	3.08406390e+02
307             	3.08411852e+02
308             	3.08417278e+02
309             	3.08422693e+02
310             	3.08428014e+02
311             	3.08433206e+02
312             	3.08438323e+02
313             	3.08443358e+02
314             	3.08448301e+02
315             	3.08453161e+02
316             	3.08457949e+02
317             	3.08462684e+02
318             	3.08467380e+02
319             	3.08472026e+02
320             	3.08476662e+02
321             	3.08481245e+02
322             	3.08485780e+02
323             	3.08490291e+02
324             	3.08494809e+02
325             	3.08499297e+02
326             	3.08503761e+02
327             	3.08508215e+02
328             	3.08512619e+02
329             	3.08517012e+02
330             	3.08521363e+02
331             	3.08525681e+02
332             	3.08529939e+02
333             	3.08534112e+02
334             	3.08538213e+02
335             	3.08542248e+02
336             	3.08546259e+02
337             	3.08550228e+02
338             	3.08554121e+02
339             	3.08557956e+02
340             	3.08561758e+02
341             	3.08565538e+02
342             	3.08569298e+02
343             	3.08573043e+02
344             	3.08576794e+02
345             	3.08580525e+02
346             	3.08584260e+02
347             	3.08587983e+02
348             	3.08591663e+02
349             	3.08595315e+02
350             	3.08598944e+02
351             	3.08602539e+02
352             	3.08606084e+02
353             	3.08609571e+02
354             	3.08612993e+02
355             	3.08616345e+02
356             	3.08619627e+02
357             	3.08622840e+02
358             	3.08626001e+02
359             	3.08629146e+02
360             	3.08632308e+02
361             	3.08635435e+02
362             	3.08638550e+02
363             	3.08641667e+02
364             	3.08644787e+02
365             	3.08647894e+02
366             	3.08650984e+02
367             	3.08654054e+02
368             	3.08657084e+02
369             	3.08660061e+02
370             	3.08662985e+02
371             	3.08665843e+02
372             	3.08668657e+02
373             	3.08671438e+02
374             	3.08674200e+02
375             	3.08676964e+02
376             	3.08679711e+02
377             	3.08682444e+02
378             	3.08685153e+02
379             	3.08687839e+02
380             	3.08690517e+02
381             	3.08693168e+02
382             	3.08695781e+02
383             	3.08698363e+02
384             	3.08700919e+02
385             	3.08703456e+02
386             	3.08705963e+02
387             	3.08708437e+02
388             	3.08710885e+02
389             	3.08713285e+02
390             	3.08715668e+02
391             	3.08718042e+02
392             	3.08720417e+02
393             	3.08722794e+02
394             	3.08725167e+02
395             	3.08727509e+02
396             	3.08729812e+02
397             	3.08732084e+02
398             	3.08734326e+02
399             	3.08736538e+02
400             	3.08738716e+02
401             	3.08740862e+02
402             	3.08742983e+02
403             	3.08745092e+02
404             	3.08747202e+02
405             	3.08749271e+02
406             	3.08751302e+02
407             	3.08753326e+02
408             	3.08755347e+02
409             	3.08757364e+02
410             	3.08759374e+02
411             	3.08761384e+02
412             	3.08763401e+02
413             	3.08765398e+02
414             	3.08767402e+02
415             	3.08769405e+02
416             	3.08771401e+02
417             	3.08773389e+02
418             	3.08775347e+02
419             	3.08777259e+02
420             	3.08779111e+02
421             	3.08780947e+02
422             	3.08782738e+02
423             	3.08784484e+02
424             	3.08786191e+02
425             	3.08787876e+02
426             	3.08789564e+02
427             	3.08791252e+02
428             	3.08792959e+02
429             	3.08794669e+02
430             	3.08796383e+02
431             	3.08798075e+02
432             	3.08799740e+02
433             	3.08801420e+02
434             	3.08803072e+02
435             	3.08804697e+02
436             	3.08806300e+02
437             	3.08807874e+02
438             	3.08809432e+02
439             	3.08810979e+02
440             	3.08812503e+02
441             	3.08814048e+02
442             	3.08815573e+02
443             	3.08817112e+02
444             	3.08818655e+02
445             	3.08820196e+02
446             	3.08821714e+02
447             	3.08823203e+02
448             	3.08824683e+02
449             	3.08826133e+02
450             	3.08827538e+02
451             	3.08828919e+02
452             	3.08830281e+02
453             	3.08831634e+02
454             	3.08832992e+02
455             	3.08834348e+02
456             	3.08835701e+02
457             	3.08837054e+02
458             	3.08838398e+02
459             	3.08839716e+02
460             	3.08841017e+02
461             	3.08842312e+02
462             	3.08843596e+02
463             	3.08844863e+02
464             	3.08846116e+02
465             	3.08847361e+02
466             	3.08848605e+02
467             	3.08849837e+02
468             	3.08851064e+02
469             	3.08852287e+02
470             	3.08853503e+02
471             	3.08854715e+02
472             	3.08855912e+02
473             	3.08857099e+02
474             	3.08858273e+02
475             	3.08859436e+02
476             	3.08860592e+02
477             	3.08861740e+02
478             	3.08862877e+02
479             	3.08863998e+02
480             	3.08865100e+02
481             	3.08866186e+02
482             	3.08867278e+02
483             	3.08868366e+02
484             	3.08869454e+02
485             	3.08870537e+02
486             	3.08871609e+02
487             	3.08872672e+02
488             	3.08873729e+02
489             	3.08874768e+02
490             	3.08875796e+02
491             	3.08876815e+02
492             	3.08877826e+02
493             	3.08878828e+02
494             	3.08879821e+02
495             	3.08880810e+02
496             	3.08881793e+02
497             	3.08882773e+02
498             	3.08883750e+02
499             	3.08884733e+02
500             	3.08885720e+02
501             	3.08886706e+02
502             	3.08887680e+02
503             	3.08888632e+02
504             	3.08889565e+02
505             	3.08890481e+02
506             	3.08891382e+02
507             	3.08892276e+02
508             	3.08893166e+02
509             	3.08894049e+02
510             	3.08894922e+02
511             	3.08895791e+02
512             	3.08896654e+02
513             	3.08897513e+02
514             	3.08898369e+02
515             	3.08899223e+02
516             	3.08900075e+02
517             	3.08900922e+02
518             	3.08901762e+02
519             	3.08902593e+02
520             	3.08903414e+02
521             	3.08904224e+02
522             	3.08905024e+02
523             	3.08905817e+02
524             	3.08906600e+02
525             	3.08907387e+02
526             	3.08908169e+02
527             	3.08908950e+02
528             	3.08909726e+02
529             	3.08910498e+02
530             	3.08911270e+02
531             	3.08912041e+02
532             	3.08912809e+02
533             	3.08913573e+02
534             	3.08914331e+02
535             	3.08915083e+02
536             	3.08915829e+02
537             	3.08916564e+02
538             	3.08917289e+02
539             	3.08918005e+02
540             	3.08918714e+02
541             	3.08919414e+02
542             	3.08920107e+02
543             	3.08920797e+02
544             	3.08921479e+02
545             	3.08922157e+02
546             	3.08922831e+02
547             	3.08923503e+02
548             	3.08924171e+02
549             	3.08924839e+02
550             	3.08925509e+02
551             	3.08926178e+02
552             	3.08926845e+02
553             	3.08927508e+02
554             	3.08928168e+02
555             	3.08928823e+02
556             	3.08929471e+02
557             	3.08930113e+02
558             	3.08930747e+02
559             	3.08931375e+02
560             	3.08931996e+02
561             	3.08932607e+02
562             	3.08933211e+02
563             	3.08933807e+02
564             	3.08934396e+02
565             	3.08934979e+02
566             	3.08935557e+02
567             	3.08936129e+02
568             	3.08936697e+02
569             	3.08937262e+02
570             	3.08937822e+02
571             	3.08938379e+02
572             	3.08938934e+02
573             	3.08939486e+02
574             	3.08940036e+02
575             	3.08940583e+02
576             	3.08941131e+02
577             	3.08941677e+02
578             	3.08942221e+02
579             	3.08942772e+02
580             	3.08943314e+02
581             	3.08943847e+02
582             	3.08944376e+02
583             	3.08944902e+02
584             	3.08945422e+02
585             	3.08945937e+02
586             	3.08946449e+02
587             	3.08946958e+02
588             	3.08947462e+02
589             	3.08947959e+02
590             	3.08948457e+02
591             	3.08948955e+02
592             	3.08949454e+02
593             	3.08949952e+02
594             	3.08950447e+02
595             	3.08950939e+02
596             	3.08951430e+02
597             	3.08951924e+02
598             	3.08952414e+02
599             	3.08952899e+02
600             	3.08953383e+02
601             	3.08953865e+02
602             	3.08954345e+02
603             	3.08954822e+02
604             	3.08955296e+02
605             	3.08955767e+02
606             	3.08956234e+02
607             	3.08956696e+02
608             	3.08957154e+02
609             	3.08957609e+02
610             	3.08958062e+02
611             	3.08958513e+02
612             	3.08958958e+02
613             	3.08959400e+02
614             	3.08959840e+02
615             	3.08960276e+02
616             	3.08960709e+02
617             	3.08961140e+02
618             	3.08961567e+02
619             	3.08961991e+02
620             	3.08962412e+02
621             	3.08962831e+02
622             	3.08963246e+02
623             	3.08963658e+02
624             	3.08964067e+02
625             	3.08964473e+02
626             	3.08964876e+02
627             	3.08965277e+02
628             	3.08965675e+02
629             	3.08966071e+02
630             	3.08966465e+02
631             	3.08966857e+02
632             	3.08967249e+02
633             	3.08967638e+02
634             	3.08968024e+02
635             	3.08968408e+02
636             	3.08968789e+02
637             	3.08969166e+02
638             	3.08969539e+02
639             	3.08969910e+02
640             	3.08970279e+02
641             	3.08970645e+02
642             	3.08971008e+02
643             	3.08971368e+02
644             	3.08971724e+02
645             	3.08972078e+02
646             	3.08972430e+02
647             	3.08972779e+02
648             	3.08973125e+02
649             	3.08973469e+02
650             	3.08973809e+02
651             	3.08974147e+02
652             	3.08974481e+02
653             	3.08974815e+02
654             	3.08975147e+02
655             	3.08975473e+02
656             	3.08975794e+02
657             	3.08976114e+02
658             	3.08976431e+02
659             	3.08976746e+02
660             	3.08977062e+02
661             	3.08977378e+02
662             	3.08977694e+02
663             	3.08978010e+02
664             	3.08978323e+02
665             	3.08978636e+02
666             	3.08978947e+02
667             	3.08979256e+02
668             	3.08979566e+02
669             	3.08979876e+02
670             	3.08980189e+02
671             	3.08980503e+02
672             	3.08980816e+02
673             	3.08981130e+02
674             	3.08981440e+02
675             	3.08981744e+02
676             	3.08982047e+02
677             	3.08982340e+02
678             	3.08982626e+02
679             	3.08982908e+02
680             	3.08983187e+02
681             	3.08983463e+02
682             	3.08983738e+02
683             	3.08984010e+02
684             	3.08984285e+02
685             	3.08984564e+02
686             	3.08984844e+02
687             	3.08985125e+02
688             	3.08985404e+02
689             	3.08985680e+02
690             	3.08985956e+02
691             	3.08986230e+02
692             	3.08986493e+02
693             	3.08986749e+02
694             	3.08987004e+02
695             	3.08987252e+02
696             	3.08987500e+02
697             	3.08987744e+02
698             	3.08987990e+02
699             	3.08988236e+02
700             	3.08988481e+02
701             	3.08988723e+02
702             	3.08988964e+02
703             	3.08989202e+02
704             	3.08989446e+02
705             	3.08989687e+02
706             	3.08989924e+02
707             	3.08990163e+02
708             	3.08990404e+02
709             	3.08990647e+02
710             	3.08990889e+02
711             	3.08991129e+02
712             	3.08991368e+02
713             	3.08991608e+02
714             	3.08991849e+02
715             	3.08992086e+02
716             	3.08992319e+02
717             	3.08992552e+02
718             	3.08992783e+02
719             	3.08993013e+02
720             	3.08993243e+02
721             	3.08993474e+02
722             	3.08993703e+02
723             	3.08993932e+02
724             	3.08994160e+02
725             	3.08994389e+02
726             	3.08994618e+02
727             	3.08994844e+02
728             	3.08995075e+02
729             	3.08995303e+02
730             	3.08995529e+02
731             	3.08995752e+02
732             	3.08995971e+02
733             	3.08996185e+02
734             	3.08996395e+02
735             	3.08996600e+02
736             	3.08996797e+02
737             	3.08996997e+02
738             	3.08997194e+02
739             	3.08997383e+02
740             	3.08997570e+02
741             	3.08997757e+02
742             	3.08997945e+02
743             	3.08998136e+02
744             	3.08998330e+02
745             	3.08998523e+02
746             	3.08998717e+02
747             	3.08998911e+02
748             	3.08999103e+02
749             	3.08999291e+02
750             	3.08999477e+02
751             	3.08999662e+02
752             	3.08999846e+02
753             	3.09000029e+02
754             	3.09000210e+02
755             	3.09000391e+02
756             	3.09000568e+02
757             	3.09000746e+02
758             	3.09000924e+02
759             	3.09001102e+02
760             	3.09001279e+02
761             	3.09001456e+02
762             	3.09001630e+02
763             	3.09001801e+02
764             	3.09001971e+02
765             	3.09002142e+02
766             	3.09002312e+02
767             	3.09002482e+02
768             	3.09002651e+02
769             	3.09002823e+02
770             	3.09002994e+02
771             	3.09003173e+02
772             	3.09003350e+02
773             	3.09003528e+02
774             	3.09003708e+02
775             	3.09003888e+02
776             	3.09004065e+02
777             	3.09004238e+02
778             	3.09004406e+02
779             	3.09004571e+02
780             	3.09004732e+02
781             	3.09004891e+02
782             	3.09005047e+02
783             	3.09005200e+02
784             	3.09005350e+02
785             	3.09005499e+02
786             	3.09005646e+02
787             	3.09005791e+02
788             	3.09005934e+02
789             	3.09006075e+02
790             	3.09006221e+02
791             	3.09006369e+02
792             	3.09006518e+02
793             	3.09006666e+02
794             	3.09006813e+02
795             	3.09006959e+02
796             	3.09007108e+02
797             	3.09007250e+02
798             	3.09007385e+02
799             	3.09007515e+02
800             	3.09007644e+02
801             	3.09007771e+02
802             	3.09007894e+02
803             	3.09008017e+02
804             	3.09008141e+02
805             	3.09008266e+02
806             	3.09008393e+02
807             	3.09008525e+02
808             	3.09008663e+02
809             	3.09008805e+02
810             	3.09008947e+02
811             	3.09009088e+02
812             	3.09009226e+02
813             	3.09009363e+02
814             	3.09009496e+02
815             	3.09009627e+02
816             	3.09009762e+02
817             	3.09009899e+02
818             	3.09010035e+02
819             	3.09010172e+02
820             	3.09010309e+02
821             	3.09010443e+02
822             	3.09010569e+02
823             	3.09010690e+02
824             	3.09010811e+02
825             	3.09010932e+02
826             	3.09011053e+02
827             	3.09011177e+02
828             	3.09011301e+02
829             	3.09011430e+02
830             	3.09011560e+02
831             	3.09011693e+02
832             	3.09011824e+02
833             	3.09011954e+02
834             	3.09012082e+02
835             	3.09012208e+02
836             	3.09012335e+02
837             	3.09012463e+02
838             	3.09012583e+02
839             	3.09012695e+02
840             	3.09012805e+02
841             	3.09012912e+02
842             	3.09013018e+02
843             	3.09013124e+02
844             	3.09013228e+02
845             	3.09013334e+02
846             	3.09013442e+02
847             	3.09013549e+02
848             	3.09013657e+02
849             	3.09013764e+02
850             	3.09013871e+02
851             	3.09013979e+02
852             	3.09014087e+02
853             	3.09014195e+02
854             	3.09014302e+02
855             	3.09014409e+02
856             	3.09014515e+02
857             	3.09014623e+02
858             	3.09014728e+02
859             	3.09014830e+02
860             	3.09014930e+02
861             	3.09015029e+02
862             	3.09015124e+02
863             	3.09015218e+02
864             	3.09015310e+02
865             	3.09015401e+02
866             	3.09015491e+02
867             	3.09015581e+02
868             	3.09015672e+02
869             	3.09015763e+02
870             	3.09015856e+02
871             	3.09015949e+02
872             	3.09016044e+02
873             	3.09016141e+02
874             	3.09016240e+02
875             	3.09016339e+02
876             	3.09016439e+02
877             	3.09016538e+02
878             	3.09016637e+02
879             	3.09016734e+02
880             	3.09016831e+02
881             	3.09016930e+02
882             	3.09017032e+02
883             	3.09017133e+02
884             	3.09017236e+02
885             	3.09017340e+02
886             	3.09017442e+02
887             	3.09017543e+02
888             	3.09017641e+02
889             	3.09017736e+02
890             	3.09017827e+02
891             	3.09017918e+02
892             	3.09018007e+02
893             	3.09018097e+02
894             	3.09018188e+02
895             	3.09018277e+02
896             	3.09018366e+02
897             	3.09018454e+02
898             	3.09018541e+02
899             	3.09018627e+02
900             	3.09018714e+02
901             	3.09018801e+02
902             	3.09018889e+02
903             	3.09018977e+02
904             	3.09019064e+02
905             	3.09019153e+02
906             	3.09019241e+02
907             	3.09019329e+02
908             	3.09019416e+02
909             	3.09019503e+02
910             	3.09019588e+02
911             	3.09019672e+02
912             	3.09019755e+02
913             	3.09019835e+02
914             	3.09019913e+02
915             	3.09019989e+02
916             	3.09020063e+02
917             	3.09020136e+02
918             	3.09020207e+02
919             	3.09020275e+02
920             	3.09020343e+02
921             	3.09020410e+02
922             	3.09020476e+02
923             	3.09020542e+02
924             	3.09020609e+02
925             	3.09020675e+02
926             	3.09020741e+02
927             	3.09020807e+02
928             	3.09020872e+02
929             	3.09020939e+02
930             	3.09021005e+02
931             	3.09021070e+02
932             	3.09021136e+02
933             	3.09021202e+02