# Region        : cellZone component_0
# Cells         : 156
# Volume        : 3.01260048e-01
# Time          	volAverage(T)
1               	3.00205815e+02
2               	3.00408963e+02
3               	3.00594690e+02
4               	3.00768393e+02
5               	3.00936093e+02
6               	3.01100052e+02
7               	3.01260980e+02
8               	3.01421130e+02
9               	3.01579239e+02
10              	3.01734112e+02
11              	3.01884433e+02
12              	3.02031232e+02
13              	3.02174618e+02
14              	3.02314218e+02
15              	3.02452998e+02
16              	3.02589188e+02
17              	3.02722035e+02
18              	3.02852130e+02
19              	3.02980135e+02
20              	3.03105797e+02
21              	3.03231360e+02
22              	3.03357646e+02
23              	3.03472893e+02
24              	3.03576575e+02
25              	3.03680394e+02
26              	3.03782578e+02
27              	3.03890093e+02
28              	3.03997312e+02
29              	3.04101870e+02
30              	3.04203981e+02
31              	3.04305508e+02
32              	3.04411177e+02
33              	3.04513565e+02
34              	3.04600730e+02
35              	3.04678673e+02
36              	3.04750296e+02
37              	3.04827291e+02
38              	3.04909369e+02
39              	3.04993696e+02
40              	3.05076641e+02
41              	3.05156515e+02
42              	3.05237000e+02
43              	3.05319797e+02
44              	3.05406944e+02
45              	3.05484492e+02
46              	3.05555416e+02
47              	3.05622778e+02
48              	3.05694534e+02
49              	3.05767097e+02
50              	3.05836280e+02
51              	3.05904517e+02
52              	3.05972054e+02
53              	3.06035091e+02
54              	3.06096887e+02
55              	3.06159288e+02
56              	3.06221080e+02
57              	3.06284185e+02
58              	3.06350724e+02
59              	3.06416355e+02
60              	3.06484104e+02
61              	3.06548315e+02
62              	3.06615139e+02
63              	3.06683558e+02
64              	3.06746032e+02
65              	3.06802752e+02
66              	3.06859810e+02
67              	3.06923774e+02
68              	3.06972285e+02
69              	3.07010937e+02
70              	3.07032586e+02
71              	3.07057569e+02
72              	3.07093509e+02
73              	3.07138777e+02
74              	3.07192284e+02
75              	3.07242810e+02
76              	3.07296582e+02
77              	3.07353031e+02
78              	3.07410641e+02
79              	3.07464077e+02
80              	3.07513301e+02
81              	3.07557420e+02
82              	3.07595881e+02
83              	3.07624850e+02
84              	3.07654836e+02
85              	3.07689642e+02
86              	3.07724700e+02
87              	3.07761171e+02
88              	3.07802789e+02
89              	3.07846765e+02
90              	3.07891046e+02
91              	3.07930749e+02
92              	3.07981392e+02
93              	3.08025280e+02
94              	3.08061204e+02
95              	3.08093248e+02
96              	3.08125799e+02
97              	3.08159529e+02
98              	3.08196904e+02
99              	3.08230991e+02
100             	3.08265260e+02
101             	3.08301411e+02
102             	3.08338710e+02
103             	3.08374745e+02
104             	3.08409570e+02
105             	3.08447976e+02
106             	3.08485578e+02
107             	3.08519695e+02
108             	3.08554050e+02
109             	3.08586440e+02
110             	3.08615593e+02
111             	3.08640588e+02
112             	3.08664763e+02
113             	3.08692073e+02
114             	3.08720021e+02
115             	3.08751401e+02
116             	3.08781570e+02
117             	3.08813177e+02
118             	3.08845246e+02
119             	3.08875282e+02
120             	3.08905634e+02
121             	3.08935147e+02
122             	3.08964935e+02
123             	3.08994072e+02
124             	3.09023626e+02
125             	3.09053170e+02
126             	3.09082035e+02
127             	3.09110494e+02
128             	3.09138856e+02
129             	3.09165837e+02
130             	3.09190777e+02
131             	3.09215778e+02
132             	3.09240066e+02
133             	3.09262737e+02
134             	3.09286333e+02
135             	3.09308234e+02
136             	3.09330662e+02
137             	3.09353755e+02
138             	3.09377489e+02
139             	3.09399735e+02
140             	3.09422679e+02
141             	3.09445406e+02
142             	3.09467244e+02
143             	3.09489084e+02
144             	3.09510336e+02
145             	3.09528347e+02
146             	3.09547685e+02
147             	3.09564712e+02
148             	3.09582119e+02
149             	3.09600922e+02
150             	3.09619942e+02
151             	3.09638795e+02
152             	3.09655795e+02
153             	3.09674225e+02
154             	3.09689201e+02
155             	3.09704793e+02
156             	3.09719906e+02
157             	3.09733842e+02
158             	3.09747911e+02
159             	3.09761708e+02
160             	3.09777089e+02
161             	3.09794142e+02
162             	3.09811426e+02
163             	3.09827934e+02
164             	3.09843851e+02
165             	3.09860665e+02
166             	3.09876214e+02
167             	3.09890925e+02
168             	3.09905110e+02
169             	3.09918212e+02
170             	3.09929369e+02
171             	3.09936632e+02
172             	3.09944939e+02
173             	3.09954947e+02
174             	3.09965155e+02
175             	3.09976545e+02
176             	3.09988431e+02
177             	3.10000902e+02
178             	3.10014163e+02
179             	3.10027379e+02
180             	3.10040292e+02
181             	3.10052536e+02
182             	3.10064114e+02
183             	3.10075101e+02
184             	3.10086307e+02
185             	3.10093623e+02
186             	3.10102126e+02
187             	3.10110828e+02
188             	3.10119715e+02
189             	3.10128605e+02
190             	3.10137035e+02
191             	3.10145232e+02
192             	3.10153440e+02
193             	3.10161743e+02
194             	3.10170131e+02
195             	3.10178621e+02
196             	3.10187248e+02
197             	3.10196083e+02
198             	3.10205407e+02
199             	3.10211089e+02
200             	3.10217873e+02
201             	3.10224651e+02
202             	3.10231203e+02
203             	3.10237586e+02
204             	3.10244189e+02
205             	3.10251134e+02
206             	3.10258324e+02
207             	3.10265466e+02
208             	3.10273089e+02
209             	3.10280883e+02
210             	3.10288957e+02
211             	3.10296909e+02
212             	3.10304920e+02
213             	3.10313028e+02
214             	3.10320634e+02
215             	3.10328396e+02
216             	3.10335627e+02
217             	3.10338412e+02
218             	3.10342398e+02
219             	3.10346834e+02
220             	3.10351432e+02
221             	3.10356805e+02
222             	3.10362600e+02
223             	3.10368572e+02
224             	3.10374709e+02
225             	3.10380932e+02
226             	3.10387162e+02
227             	3.10393419e+02
228             	3.10400009e+02
229             	3.10402817e+02
230             	3.10407077e+02
231             	3.10411670e+02
232             	3.10416489e+02
233             	3.10421493e+02
234             	3.10426575e+02
235             	3.10430821e+02
236             	3.10435721e+02
237             	3.10440997e+02
238             	3.10446391e+02
239             	3.10451902e+02
240             	3.10457472e+02
241             	3.10462993e+02
242             	3.10468256e+02
243             	3.10473361e+02
244             	3.10478533e+02
245             	3.10480015e+02
246             	3.10482740e+02
247             	3.10485756e+02
248             	3.10488789e+02
249             	3.10491794e+02
250             	3.10495327e+02
251             	3.10499068e+02
252             	3.10503015e+02
253             	3.10507058e+02
254             	3.10511207e+02
255             	3.10515394e+02
256             	3.10519548e+02
257             	3.10523625e+02
258             	3.10527852e+02
259             	3.10531944e+02
260             	3.10536234e+02
261             	3.10536473e+02
262             	3.10538422e+02
263             	3.10540964e+02
264             	3.10543884e+02
265             	3.10546991e+02
266             	3.10550155e+02
267             	3.10553507e+02
268             	3.10556905e+02
269             	3.10560353e+02
270             	3.10563883e+02
271             	3.10567436e+02
272             	3.10571013e+02
273             	3.10574384e+02
274             	3.10574157e+02
275             	3.10575582e+02
276             	3.10577484e+02
277             	3.10579628e+02
278             	3.10581968e+02
279             	3.10584406e+02
280             	3.10586804e+02
281             	3.10589455e+02
282             	3.10592148e+02
283             	3.10594849e+02
284             	3.10597561e+02
285             	3.10600293e+02
286             	3.10603056e+02
287             	3.10606003e+02
288             	3.10608791e+02
289             	3.10611781e+02
290             	3.10610730e+02
291             	3.10611393e+02
292             	3.10612666e+02
293             	3.10614337e+02
294             	3.10616240e+02
295             	3.10618184e+02
296             	3.10620283e+02
297             	3.10622450e+02
298             	3.10624578e+02
299             	3.10626822e+02
300             	3.10629228e+02
301             	3.10631762e+02
302             	3.10634290e+02
303             	3.10636730e+02
304             	3.10639425e+02
305             	3.10637968e+02
306             	3.10638211e+02
307             	3.10639042e+02
308             	3.10640194e+02
309             	3.10641521e+02
310             	3.10643160e+02
311             	3.10644782e+02
312             	3.10646551e+02
313             	3.10648405e+02
314             	3.10650330e+02
315             	3.10652352e+02
316             	3.10654501e+02
317             	3.10656935e+02
318             	3.10659159e+02
319             	3.10657398e+02
320             	3.10657453e+02
321             	3.10658110e+02
322             	3.10659122e+02
323             	3.10660208e+02
324             	3.10661604e+02
325             	3.10663153e+02
326             	3.10664686e+02
327             	3.10666259e+02
328             	3.10667927e+02
329             	3.10669705e+02
330             	3.10671560e+02
331             	3.10673485e+02
332             	3.10675323e+02
333             	3.10677369e+02
334             	3.10675106e+02
335             	3.10674662e+02
336             	3.10674904e+02
337             	3.10675674e+02
338             	3.10676755e+02
339             	3.10677974e+02
340             	3.10679234e+02
341             	3.10680659e+02
342             	3.10682177e+02
343             	3.10683821e+02
344             	3.10685612e+02
345             	3.10687403e+02
346             	3.10689241e+02
347             	3.10687252e+02
348             	3.10686985e+02
349             	3.10687275e+02
350             	3.10687796e+02
351             	3.10688543e+02
352             	3.10689486e+02
353             	3.10690260e+02
354             	3.10691385e+02
355             	3.10692577e+02
356             	3.10693834e+02
357             	3.10695166e+02
358             	3.10696464e+02
359             	3.10698072e+02
360             	3.10699577e+02
361             	3.10701063e+02
362             	3.10702582e+02
363             	3.10704106e+02
364             	3.10705419e+02
365             	3.10706842e+02
366             	3.10708006e+02
367             	3.10709151e+02
368             	3.10710322e+02
369             	3.10711488e+02
370             	3.10712609e+02
371             	3.10713813e+02
372             	3.10715025e+02
373             	3.10716082e+02
374             	3.10717163e+02
375             	3.10718259e+02
376             	3.10719420e+02
377             	3.10720463e+02
378             	3.10721177e+02
379             	3.10722011e+02
380             	3.10722832e+02
381             	3.10723637e+02
382             	3.10724443e+02
383             	3.10725245e+02
384             	3.10726077e+02
385             	3.10726973e+02
386             	3.10727852e+02
387             	3.10728960e+02
388             	3.10730189e+02
389             	3.10727171e+02
390             	3.10726126e+02
391             	3.10725799e+02
392             	3.10725924e+02
393             	3.10726365e+02
394             	3.10726990e+02
395             	3.10727727e+02
396             	3.10728523e+02
397             	3.10729357e+02
398             	3.10730184e+02
399             	3.10731026e+02
400             	3.10731895e+02
401             	3.10732734e+02
402             	3.10733586e+02
403             	3.10734461e+02
404             	3.10735358e+02
405             	3.10736221e+02
406             	3.10737023e+02
407             	3.10737727e+02
408             	3.10738407e+02
409             	3.10739067e+02
410             	3.10739710e+02
411             	3.10740363e+02
412             	3.10741050e+02
413             	3.10741832e+02
414             	3.10742564e+02
415             	3.10743290e+02
416             	3.10744104e+02
417             	3.10744836e+02
418             	3.10745733e+02
419             	3.10746520e+02
420             	3.10747233e+02
421             	3.10747767e+02
422             	3.10748351e+02
423             	3.10748886e+02
424             	3.10749410e+02
425             	3.10749942e+02
426             	3.10750481e+02
427             	3.10751037e+02
428             	3.10751563e+02
429             	3.10752194e+02
430             	3.10752770e+02
431             	3.10753349e+02
432             	3.10753949e+02
433             	3.10754466e+02
434             	3.10754963e+02
435             	3.10755387e+02
436             	3.10755810e+02
437             	3.10756231e+02
438             	3.10756642e+02
439             	3.10757055e+02
440             	3.10757474e+02
441             	3.10757887e+02
442             	3.10758459e+02
443             	3.10758939e+02
444             	3.10759456e+02
445             	3.10759941e+02
446             	3.10760372e+02
447             	3.10760779e+02
448             	3.10761151e+02
449             	3.10761472e+02
450             	3.10761782e+02
451             	3.10762123e+02
452             	3.10762463e+02
453             	3.10762864e+02
454             	3.10763253e+02
455             	3.10763634e+02
456             	3.10764010e+02
457             	3.10764381e+02
458             	3.10764741e+02
459             	3.10765088e+02
460             	3.10765391e+02
461             	3.10765632e+02
462             	3.10765902e+02
463             	3.10766179e+02
464             	3.10766453e+02
465             	3.10766718e+02
466             	3.10767002e+02
467             	3.10767307e+02
468             	3.10767616e+02
469             	3.10767921e+02
470             	3.10768245e+02
471             	3.10768581e+02
472             	3.10768943e+02
473             	3.10769316e+02
474             	3.10769665e+02
475             	3.10769943e+02
476             	3.10770207e+02
477             	3.10770409e+02
478             	3.10770582e+02
479             	3.10770718e+02
480             	3.10770876e+02
481             	3.10771064e+02
482             	3.10771285e+02
483             	3.10771620e+02
484             	3.10771913e+02
485             	3.10772281e+02
486             	3.10772636e+02
487             	3.10772978e+02
488             	3.10773225e+02
489             	3.10773386e+02
490             	3.10773569e+02
491             	3.10773721e+02
492             	3.10773890e+02
493             	3.10774066e+02
494             	3.10774250e+02
495             	3.10774437e+02
496             	3.10774625e+02
497             	3.10774812e+02
498             	3.10775019e+02
499             	3.10775231e+02
500             	3.10775457e+02
501             	3.10775691e+02
502             	3.10775925e+02
503             	3.10776145e+02
504             	3.10776347e+02
505             	3.10776482e+02
506             	3.10776637e+02
507             	3.10776781e+02
508             	3.10776912e+02
509             	3.10777042e+02
510             	3.10777168e+02
511             	3.10777297e+02
512             	3.10777423e+02
513             	3.10777554e+02
514             	3.10777708e+02
515             	3.10777885e+02
516             	3.10778074e+02
517             	3.10778257e+02
518             	3.10778441e+02
519             	3.10778617e+02
520             	3.10778729e+02
521             	3.10778853e+02
522             	3.10778934e+02
523             	3.10779037e+02
524             	3.10779142e+02
525             	3.10779249e+02
526             	3.10779371e+02
527             	3.10779501e+02
528             	3.10779641e+02
529             	3.10779813e+02
530             	3.10779953e+02
531             	3.10780089e+02
532             	3.10780223e+02
533             	3.10780346e+02
534             	3.10780450e+02
535             	3.10780568e+02
536             	3.10780678e+02
537             	3.10780756e+02
538             	3.10780834e+02
539             	3.10780907e+02
540             	3.10780973e+02
541             	3.10781044e+02
542             	3.10781136e+02
543             	3.10781237e+02
544             	3.10781339e+02
545             	3.10781442e+02
546             	3.10781542e+02
547             	3.10781631e+02
548             	3.10781713e+02
549             	3.10781790e+02
550             	3.10781870e+02
551             	3.10781950e+02
552             	3.10782023e+02
553             	3.10782109e+02
554             	3.10782200e+02
555             	3.10782301e+02
556             	3.10782401e+02
557             	3.10782496e+02
558             	3.10782587e+02
559             	3.10782677e+02
560             	3.10782747e+02
561             	3.10782803e+02
562             	3.10782869e+02
563             	3.10782929e+02
564             	3.10782984e+02
565             	3.10783043e+02
566             	3.10783112e+02
567             	3.10783176e+02
568             	3.10783246e+02
569             	3.10783315e+02
570             	3.10783380e+02
571             	3.10783447e+02
572             	3.10783512e+02
573             	3.10783573e+02
574             	3.10783637e+02
575             	3.10783697e+02
576             	3.10783757e+02
577             	3.10783819e+02
578             	3.10783880e+02
579             	3.10783939e+02
580             	3.10784005e+02
581             	3.10784067e+02
582             	3.10784126e+02
583             	3.10784183e+02
584             	3.10784246e+02
585             	3.10784303e+02
586             	3.10784361e+02
587             	3.10784415e+02
588             	3.10784465e+02
589             	3.10784510e+02
590             	3.10784559e+02
591             	3.10784606e+02
592             	3.10784652e+02
593             	3.10784695e+02
594             	3.10784735e+02
595             	3.10784775e+02
596             	3.10784821e+02
597             	3.10784871e+02
598             	3.10784916e+02
599             	3.10784963e+02
600             	3.10785013e+02
601             	3.10785056e+02
602             	3.10785102e+02
603             	3.10785142e+02
604             	3.10785185e+02
605             	3.10785220e+02
606             	3.10785254e+02
607             	3.10785290e+02
608             	3.10785325e+02
609             	3.10785359e+02
610             	3.10785395e+02
611             	3.10785434e+02
612             	3.10785469e+02
613             	3.10785504e+02
614             	3.10785545e+02
615             	3.10785587e+02
616             	3.10785631e+02
617             	3.10785676e+02
618             	3.10785715e+02
619             	3.10785752e+02
620             	3.10785785e+02
621             	3.10785815e+02
622             	3.10785849e+02
623             	3.10785882e+02
624             	3.10785908e+02
625             	3.10785936e+02
626             	3.10785964e+02
627             	3.10785990e+02
628             	3.10786018e+02
629             	3.10786047e+02
630             	3.10786073e+02
631             	3.10786101e+02
632             	3.10786130e+02
633             	3.10786155e+02
634             	3.10786183e+02
635             	3.10786212e+02
636             	3.10786236e+02
637             	3.10786261e+02
638             	3.10786287e+02
639             	3.10786308e+02
640             	3.10786332e+02
641             	3.10786355e+02
642             	3.10786373e+02
643             	3.10786393e+02
644             	3.10786414e+02
645             	3.10786432e+02
646             	3.10786453e+02
647             	3.10786474e+02
648             	3.10786493e+02
649             	3.10786513e+02
650             	3.10786534e+02
651             	3.10786552e+02
652             	3.10786574e+02
653             	3.10786597e+02
654             	3.10786616e+02
655             	3.10786637e+02
656             	3.10786660e+02
657             	3.10786679e+02
658             	3.10786701e+02
659             	3.10786721e+02
660             	3.10786738e+02
661             	3.10786755e+02
662             	3.10786771e+02
663             	3.10786785e+02
664             	3.10786801e+02
665             	3.10786818e+02
666             	3.10786831e+02
667             	3.10786847e+02
668             	3.10786864e+02
669             	3.10786878e+02
670             	3.10786895e+02
671             	3.10786913e+02
672             	3.10786927e+02
673             	3.10786943e+02
674             	3.10786959e+02
675             	3.10786971e+02
676             	3.10786986e+02
677             	3.10787002e+02
678             	3.10787014e+02
679             	3.10787028e+02
680             	3.10787042e+02
681             	3.10787053e+02
682             	3.10787068e+02
683             	3.10787083e+02
684             	3.10787094e+02
685             	3.10787109e+02
686             	3.10787121e+02
687             	3.10787132e+02
688             	3.10787145e+02
689             	3.10787156e+02
690             	3.10787166e+02
691             	3.10787177e+02
692             	3.10787189e+02
693             	3.10787198e+02
694             	3.10787209e+02
695             	3.10787221e+02
696             	3.10787230e+02
697             	3.10787242e+02
698             	3.10787258e+02
699             	3.10787268e+02
700             	3.10787285e+02
701             	3.10787301e+02
702             	3.10787313e+02
703             	3.10787326e+02
704             	3.10787336e+02
705             	3.10787340e+02
706             	3.10787350e+02
707             	3.10787356e+02
708             	3.10787361e+02
709             	3.10787369e+02
710             	3.10787378e+02
711             	3.10787386e+02
712             	3.10787398e+02
713             	3.10787410e+02
714             	3.10787419e+02
715             	3.10787433e+02
716             	3.10787448e+02
717             	3.10787458e+02
718             	3.10787473e+02
719             	3.10787485e+02
720             	3.10787488e+02
721             	3.10787496e+02
722             	3.10787503e+02
723             	3.10787507e+02
724             	3.10787513e+02
725             	3.10787520e+02
726             	3.10787524e+02
727             	3.10787534e+02
728             	3.10787548e+02
729             	3.10787555e+02
730             	3.10787567e+02
731             	3.10787578e+02
732             	3.10787586e+02
733             	3.10787595e+02
734             	3.10787598e+02
735             	3.10787601e+02
736             	3.10787606e+02
737             	3.10787608e+02
738             	3.10787608e+02
739             	3.10787611e+02
740             	3.10787614e+02
741             	3.10787615e+02
742             	3.10787625e+02
743             	3.10787633e+02
744             	3.10787642e+02
745             	3.10787656e+02
746             	3.10787671e+02
747             	3.10787682e+02
748             	3.10787695e+02
749             	3.10787706e+02
750             	3.10787706e+02
751             	3.10787712e+02
752             	3.10787715e+02
753             	3.10787714e+02
754             	3.10787716e+02
755             	3.10787718e+02
756             	3.10787720e+02
757             	3.10787724e+02
758             	3.10787734e+02
759             	3.10787739e+02
760             	3.10787749e+02
761             	3.10787759e+02
762             	3.10787765e+02
763             	3.10787773e+02
764             	3.10787781e+02
765             	3.10787786e+02
766             	3.10787793e+02
767             	3.10787798e+02
768             	3.10787800e+02
769             	3.10787803e+02
770             	3.10787802e+02
771             	3.10787800e+02
772             	3.10787800e+02
773             	3.10787800e+02
774             	3.10787798e+02
775             	3.10787800e+02
776             	3.10787807e+02
777             	3.10787810e+02
778             	3.10787818e+02
779             	3.10787826e+02
780             	3.10787831e+02
781             	3.10787838e+02
782             	3.10787844e+02
783             	3.10787845e+02
784             	3.10787850e+02
785             	3.10787854e+02
786             	3.10787852e+02
787             	3.10787856e+02
788             	3.10787859e+02
789             	3.10787860e+02
790             	3.10787866e+02
791             	3.10787871e+02
792             	3.10787875e+02
793             	3.10787881e+02
794             	3.10787887e+02
795             	3.10787891e+02
796             	3.10787897e+02
797             	3.10787901e+02
798             	3.10787903e+02
799             	3.10787907e+02
800             	3.10787907e+02
801             	3.10787908e+02
802             	3.10787911e+02
803             	3.10787911e+02
804             	3.10787911e+02
805             	3.10787913e+02
806             	3.10787913e+02
807             	3.10787913e+02
808             	3.10787913e+02
809             	3.10787914e+02
810             	3.10787916e+02
811             	3.10787919e+02
812             	3.10787921e+02
813             	3.10787922e+02
814             	3.10787922e+02
815             	3.10787925e+02
816             	3.10787925e+02
817             	3.10787926e+02
818             	3.10787926e+02
819             	3.10787926e+02
820             	3.10787926e+02
821             	3.10787930e+02
822             	3.10787933e+02
823             	3.10787933e+02
824             	3.10787935e+02
825             	3.10787936e+02
826             	3.10787933e+02
827             	3.10787933e+02
828             	3.10787932e+02
829             	3.10787929e+02
830             	3.10787929e+02
831             	3.10787929e+02
832             	3.10787927e+02
833             	3.10787929e+02
834             	3.10787931e+02
835             	3.10787930e+02
836             	3.10787933e+02
837             	3.10787936e+02
838             	3.10787938e+02
839             	3.10787943e+02
840             	3.10787946e+02
841             	3.10787947e+02
842             	3.10787950e+02
843             	3.10787953e+02
844             	3.10787953e+02
845             	3.10787956e+02
846             	3.10787957e+02
847             	3.10787955e+02
848             	3.10787958e+02
849             	3.10787959e+02
850             	3.10787959e+02
851             	3.10787962e+02
852             	3.10787965e+02
853             	3.10787966e+02
854             	3.10787971e+02
855             	3.10787975e+02
856             	3.10787977e+02
857             	3.10787983e+02
858             	3.10787987e+02
859             	3.10787987e+02
860             	3.10787991e+02
861             	3.10787994e+02
862             	3.10787995e+02
863             	3.10787998e+02
864             	3.10788001e+02
865             	3.10788001e+02
866             	3.10788005e+02
867             	3.10788008e+02
868             	3.10788010e+02
869             	3.10788015e+02
870             	3.10788019e+02
871             	3.10788021e+02
872             	3.10788021e+02
873             	3.10788025e+02
874             	3.10788029e+02
875             	3.10788029e+02
876             	3.10788032e+02
877             	3.10788032e+02
878             	3.10788030e+02
879             	3.10788032e+02
880             	3.10788032e+02
881             	3.10788031e+02
882             	3.10788033e+02
883             	3.10788035e+02
884             	3.10788034e+02
885             	3.10788038e+02
886             	3.10788041e+02
887             	3.10788041e+02
888             	3.10788044e+02
889             	3.10788046e+02
890             	3.10788045e+02
891             	3.10788046e+02
892             	3.10788046e+02
893             	3.10788043e+02
894             	3.10788044e+02
895             	3.10788044e+02
896             	3.10788043e+02
897             	3.10788046e+02
898             	3.10788049e+02
899             	3.10788050e+02
900             	3.10788054e+02
901             	3.10788057e+02
902             	3.10788057e+02
903             	3.10788060e+02
904             	3.10788062e+02
905             	3.10788061e+02
906             	3.10788063e+02
907             	3.10788065e+02
908             	3.10788064e+02
909             	3.10788067e+02
910             	3.10788067e+02
911             	3.10788067e+02
912             	3.10788071e+02
913             	3.10788071e+02
914             	3.10788070e+02
915             	3.10788074e+02
916             	3.10788074e+02
917             	3.10788073e+02
918             	3.10788073e+02
919             	3.10788074e+02
920             	3.10788074e+02
921             	3.10788072e+02
922             	3.10788072e+02
923             	3.10788070e+02
924             	3.10788069e+02
925             	3.10788067e+02
926             	3.10788071e+02
927             	3.10788074e+02
928             	3.10788073e+02
929             	3.10788075e+02
930             	3.10788076e+02
931             	3.10788073e+02
932             	3.10788073e+02
933             	3.10788073e+02