# Region        : cellZone component_0
# Cells         : 438
# Volume        : 8.71879061e-01
# Time          	volAverage(T)
1               	3.00106201e+02
2               	3.00211961e+02
3               	3.00315168e+02
4               	3.00416875e+02
5               	3.00517705e+02
6               	3.00617903e+02
7               	3.00717569e+02
8               	3.00816988e+02
9               	3.00916188e+02
10              	3.01015130e+02
11              	3.01113826e+02
12              	3.01212318e+02
13              	3.01310477e+02
14              	3.01408350e+02
15              	3.01506012e+02
16              	3.01603221e+02
17              	3.01700091e+02
18              	3.01796829e+02
19              	3.01893373e+02
20              	3.01989689e+02
21              	3.02086111e+02
22              	3.02181977e+02
23              	3.02277085e+02
24              	3.02371457e+02
25              	3.02465792e+02
26              	3.02560225e+02
27              	3.02654320e+02
28              	3.02748116e+02
29              	3.02841577e+02
30              	3.02934527e+02
31              	3.03027036e+02
32              	3.03118969e+02
33              	3.03210439e+02
34              	3.03301525e+02
35              	3.03392042e+02
36              	3.03482382e+02
37              	3.03572355e+02
38              	3.03661768e+02
39              	3.03750661e+02
40              	3.03839581e+02
41              	3.03927902e+02
42              	3.04016044e+02
43              	3.04103389e+02
44              	3.04189653e+02
45              	3.04276125e+02
46              	3.04362463e+02
47              	3.04448378e+02
48              	3.04533726e+02
49              	3.04618503e+02
50              	3.04702629e+02
51              	3.04786112e+02
52              	3.04868954e+02
53              	3.04951323e+02
54              	3.05033058e+02
55              	3.05115015e+02
56              	3.05196995e+02
57              	3.05278772e+02
58              	3.05360280e+02
59              	3.05440914e+02
60              	3.05521645e+02
61              	3.05601866e+02
62              	3.05681702e+02
63              	3.05761378e+02
64              	3.05840653e+02
65              	3.05919273e+02
66              	3.05997194e+02
67              	3.06074362e+02
68              	3.06150946e+02
69              	3.06226913e+02
70              	3.06302662e+02
71              	3.06378678e+02
72              	3.06454659e+02
73              	3.06530352e+02
74              	3.06605522e+02
75              	3.06680254e+02
76              	3.06754531e+02
77              	3.06828259e+02
78              	3.06901537e+02
79              	3.06973993e+02
80              	3.07045621e+02
81              	3.07116483e+02
82              	3.07186815e+02
83              	3.07256453e+02
84              	3.07325506e+02
85              	3.07393791e+02
86              	3.07461862e+02
87              	3.07529445e+02
88              	3.07596289e+02
89              	3.07663267e+02
90              	3.07730179e+02
91              	3.07796714e+02
92              	3.07862765e+02
93              	3.07928483e+02
94              	3.07993864e+02
95              	3.08058623e+02
96              	3.08123118e+02
97              	3.08187140e+02
98              	3.08250731e+02
99              	3.08313576e+02
100             	3.08376078e+02
101             	3.08438093e+02
102             	3.08499687e+02
103             	3.08560796e+02
104             	3.08621600e+02
105             	3.08682061e+02
106             	3.08742158e+02
107             	3.08801850e+02
108             	3.08861170e+02
109             	3.08920182e+02
110             	3.08978205e+02
111             	3.09036597e+02
112             	3.09094748e+02
113             	3.09152620e+02
114             	3.09210195e+02
115             	3.09267616e+02
116             	3.09324781e+02
117             	3.09381704e+02
118             	3.09438357e+02
119             	3.09494445e+02
120             	3.09550178e+02
121             	3.09605298e+02
122             	3.09659707e+02
123             	3.09713572e+02
124             	3.09766901e+02
125             	3.09819714e+02
126             	3.09872200e+02
127             	3.09924468e+02
128             	3.09976788e+02
129             	3.10029169e+02
130             	3.10081489e+02
131             	3.10133566e+02
132             	3.10185298e+02
133             	3.10236699e+02
134             	3.10287754e+02
135             	3.10338419e+02
136             	3.10388641e+02
137             	3.10438632e+02
138             	3.10488346e+02
139             	3.10537939e+02
140             	3.10587226e+02
141             	3.10636369e+02
142             	3.10685071e+02
143             	3.10733435e+02
144             	3.10781299e+02
145             	3.10828871e+02
146             	3.10876064e+02
147             	3.10922855e+02
148             	3.10969291e+02
149             	3.11015422e+02
150             	3.11061315e+02
151             	3.11106993e+02
152             	3.11152484e+02
153             	3.11197840e+02
154             	3.11243006e+02
155             	3.11287989e+02
156             	3.11332574e+02
157             	3.11376960e+02
158             	3.11421106e+02
159             	3.11465027e+02
160             	3.11508719e+02
161             	3.11552156e+02
162             	3.11595377e+02
163             	3.11638251e+02
164             	3.11680818e+02
165             	3.11723127e+02
166             	3.11765243e+02
167             	3.11807162e+02
168             	3.11848811e+02
169             	3.11890193e+02
170             	3.11931246e+02
171             	3.11972017e+02
172             	3.12012525e+02
173             	3.12052813e+02
174             	3.12092905e+02
175             	3.12132761e+02
176             	3.12172435e+02
177             	3.12211842e+02
178             	3.12251221e+02
179             	3.12290448e+02
180             	3.12328996e+02
181             	3.12367494e+02
182             	3.12405806e+02
183             	3.12443850e+02
184             	3.12481605e+02
185             	3.12519091e+02
186             	3.12556360e+02
187             	3.12593444e+02
188             	3.12630352e+02
189             	3.12667105e+02
190             	3.12703612e+02
191             	3.12739941e+02
192             	3.12776087e+02
193             	3.12812011e+02
194             	3.12847744e+02
195             	3.12883308e+02
196             	3.12918717e+02
197             	3.12953970e+02
198             	3.12989022e+02
199             	3.13023803e+02
200             	3.13058134e+02
201             	3.13092373e+02
202             	3.13126439e+02
203             	3.13160240e+02
204             	3.13193775e+02
205             	3.13227125e+02
206             	3.13260170e+02
207             	3.13293173e+02
208             	3.13325968e+02
209             	3.13358626e+02
210             	3.13391040e+02
211             	3.13423309e+02
212             	3.13455381e+02
213             	3.13487238e+02
214             	3.13518910e+02
215             	3.13550408e+02
216             	3.13581717e+02
217             	3.13612763e+02
218             	3.13643737e+02
219             	3.13674452e+02
220             	3.13704997e+02
221             	3.13735291e+02
222             	3.13765147e+02
223             	3.13794956e+02
224             	3.13824658e+02
225             	3.13854180e+02
226             	3.13883481e+02
227             	3.13912648e+02
228             	3.13941740e+02
229             	3.13970754e+02
230             	3.13999639e+02
231             	3.14028291e+02
232             	3.14056874e+02
233             	3.14085143e+02
234             	3.14113192e+02
235             	3.14140936e+02
236             	3.14168550e+02
237             	3.14195823e+02
238             	3.14223059e+02
239             	3.14250186e+02
240             	3.14277161e+02
241             	3.14303954e+02
242             	3.14330687e+02
243             	3.14357253e+02
244             	3.14383670e+02
245             	3.14409993e+02
246             	3.14436135e+02
247             	3.14462134e+02
248             	3.14487898e+02
249             	3.14513570e+02
250             	3.14539041e+02
251             	3.14564421e+02
252             	3.14589636e+02
253             	3.14614457e+02
254             	3.14639351e+02
255             	3.14663945e+02
256             	3.14688495e+02
257             	3.14712709e+02
258             	3.14736995e+02
259             	3.14761000e+02
260             	3.14784965e+02
261             	3.14808903e+02
262             	3.14832678e+02
263             	3.14856328e+02
264             	3.14879857e+02
265             	3.14903267e+02
266             	3.14926546e+02
267             	3.14949672e+02
268             	3.14972658e+02
269             	3.14995493e+02
270             	3.15018161e+02
271             	3.15040666e+02
272             	3.15063095e+02
273             	3.15085385e+02
274             	3.15107563e+02
275             	3.15129416e+02
276             	3.15151251e+02
277             	3.15172710e+02
278             	3.15194287e+02
279             	3.15215577e+02
280             	3.15236808e+02
281             	3.15257844e+02
282             	3.15278832e+02
283             	3.15299779e+02
284             	3.15320576e+02
285             	3.15341265e+02
286             	3.15361822e+02
287             	3.15382319e+02
288             	3.15402696e+02
289             	3.15423076e+02
290             	3.15443329e+02
291             	3.15463460e+02
292             	3.15483389e+02
293             	3.15503217e+02
294             	3.15522673e+02
295             	3.15542105e+02
296             	3.15561349e+02
297             	3.15580541e+02
298             	3.15599468e+02
299             	3.15618438e+02
300             	3.15637340e+02
301             	3.15655910e+02
302             	3.15674535e+02
303             	3.15693103e+02
304             	3.15711605e+02
305             	3.15730006e+02
306             	3.15748310e+02
307             	3.15766506e+02
308             	3.15784621e+02
309             	3.15802651e+02
310             	3.15820560e+02
311             	3.15838419e+02
312             	3.15856020e+02
313             	3.15873656e+02
314             	3.15890883e+02
315             	3.15908118e+02
316             	3.15925173e+02
317             	3.15942207e+02
318             	3.15958975e+02
319             	3.15975836e+02
320             	3.15992473e+02
321             	3.16009095e+02
322             	3.16025757e+02
323             	3.16042301e+02
324             	3.16058775e+02
325             	3.16075183e+02
326             	3.16091499e+02
327             	3.16107592e+02
328             	3.16123775e+02
329             	3.16139809e+02
330             	3.16155499e+02
331             	3.16171302e+02
332             	3.16186898e+02
333             	3.16202437e+02
334             	3.16218020e+02
335             	3.16233263e+02
336             	3.16248498e+02
337             	3.16263798e+02
338             	3.16278781e+02
339             	3.16293819e+02
340             	3.16308765e+02
341             	3.16323568e+02
342             	3.16338395e+02
343             	3.16353228e+02
344             	3.16368004e+02
345             	3.16382699e+02
346             	3.16397091e+02
347             	3.16411520e+02
348             	3.16425935e+02
349             	3.16440290e+02
350             	3.16454194e+02
351             	3.16468298e+02
352             	3.16482366e+02
353             	3.16496371e+02
354             	3.16509973e+02
355             	3.16523760e+02
356             	3.16537514e+02
357             	3.16550997e+02
358             	3.16564411e+02
359             	3.16577972e+02
360             	3.16591230e+02
361             	3.16604519e+02
362             	3.16617704e+02
363             	3.16630748e+02
364             	3.16643810e+02
365             	3.16656853e+02
366             	3.16669628e+02
367             	3.16682467e+02
368             	3.16695303e+02
369             	3.16707851e+02
370             	3.16720460e+02
371             	3.16732874e+02
372             	3.16745201e+02
373             	3.16757559e+02
374             	3.16769881e+02
375             	3.16782019e+02
376             	3.16794176e+02
377             	3.16806332e+02
378             	3.16818351e+02
379             	3.16830241e+02
380             	3.16842156e+02
381             	3.16854067e+02
382             	3.16865826e+02
383             	3.16877677e+02
384             	3.16889401e+02
385             	3.16900808e+02
386             	3.16912181e+02
387             	3.16923738e+02
388             	3.16934985e+02
389             	3.16946285e+02
390             	3.16957481e+02
391             	3.16968553e+02
392             	3.16979652e+02
393             	3.16990763e+02
394             	3.17001480e+02
395             	3.17012439e+02
396             	3.17023399e+02
397             	3.17034311e+02
398             	3.17045048e+02
399             	3.17055903e+02
400             	3.17066648e+02
401             	3.17077317e+02
402             	3.17087587e+02
403             	3.17098102e+02
404             	3.17108598e+02
405             	3.17119054e+02
406             	3.17129113e+02
407             	3.17139368e+02
408             	3.17149629e+02
409             	3.17159594e+02
410             	3.17169511e+02
411             	3.17179622e+02
412             	3.17189412e+02
413             	3.17199280e+02
414             	3.17209066e+02
415             	3.17218985e+02
416             	3.17228575e+02
417             	3.17238263e+02
418             	3.17247859e+02
419             	3.17257622e+02
420             	3.17267048e+02
421             	3.17276555e+02
422             	3.17285959e+02
423             	3.17295276e+02
424             	3.17304633e+02
425             	3.17313988e+02
426             	3.17322966e+02
427             	3.17332201e+02
428             	3.17341422e+02
429             	3.17350358e+02
430             	3.17359417e+02
431             	3.17368324e+02
432             	3.17377144e+02
433             	3.17386027e+02
434             	3.17394917e+02
435             	3.17403418e+02
436             	3.17412190e+02
437             	3.17420952e+02
438             	3.17429437e+02
439             	3.17437879e+02
440             	3.17446549e+02
441             	3.17455158e+02
442             	3.17463465e+02
443             	3.17471736e+02
444             	3.17480219e+02
445             	3.17488648e+02
446             	3.17496769e+02
447             	3.17504854e+02
448             	3.17513155e+02
449             	3.17521394e+02
450             	3.17529327e+02
451             	3.17537218e+02
452             	3.17545313e+02
453             	3.17553088e+02
454             	3.17560894e+02
455             	3.17568841e+02
456             	3.17576468e+02
457             	3.17584198e+02
458             	3.17591836e+02
459             	3.17599384e+02
460             	3.17607007e+02
461             	3.17614666e+02
462             	3.17621955e+02
463             	3.17629503e+02
464             	3.17637036e+02
465             	3.17644551e+02
466             	3.17651683e+02
467             	3.17659080e+02
468             	3.17666453e+02
469             	3.17673811e+02
470             	3.17681004e+02
471             	3.17688351e+02
472             	3.17695604e+02
473             	3.17702796e+02
474             	3.17709809e+02
475             	3.17716693e+02
476             	3.17723673e+02
477             	3.17730676e+02
478             	3.17737344e+02
479             	3.17744262e+02
480             	3.17751173e+02
481             	3.17757807e+02
482             	3.17764421e+02
483             	3.17771262e+02
484             	3.17777798e+02
485             	3.17784435e+02
486             	3.17790988e+02
487             	3.17797727e+02
488             	3.17804131e+02
489             	3.17810654e+02
490             	3.17817263e+02
491             	3.17823899e+02
492             	3.17830537e+02
493             	3.17837124e+02
494             	3.17843364e+02
495             	3.17849563e+02
496             	3.17856024e+02
497             	3.17862142e+02
498             	3.17868340e+02
499             	3.17874467e+02
500             	3.17880484e+02
501             	3.17886588e+02
502             	3.17892736e+02
503             	3.17898546e+02
504             	3.17904646e+02
505             	3.17910732e+02
506             	3.17916546e+02
507             	3.17922354e+02
508             	3.17928388e+02
509             	3.17934115e+02
510             	3.17939934e+02
511             	3.17945693e+02
512             	3.17951652e+02
513             	3.17957532e+02
514             	3.17963370e+02
515             	3.17969064e+02
516             	3.17974913e+02
517             	3.17980637e+02
518             	3.17986061e+02
519             	3.17991505e+02
520             	3.17997174e+02
521             	3.18002511e+02
522             	3.18007975e+02
523             	3.18013393e+02
524             	3.18018691e+02
525             	3.18024077e+02
526             	3.18029505e+02
527             	3.18034602e+02
528             	3.18039973e+02
529             	3.18045322e+02
530             	3.18050662e+02
531             	3.18055652e+02
532             	3.18060917e+02
533             	3.18066157e+02
534             	3.18071404e+02
535             	3.18076529e+02
536             	3.18081816e+02
537             	3.18087010e+02
538             	3.18092164e+02
539             	3.18097181e+02
540             	3.18102355e+02
541             	3.18107395e+02
542             	3.18112134e+02
543             	3.18116905e+02
544             	3.18121893e+02
545             	3.18126553e+02
546             	3.18131358e+02
547             	3.18136100e+02
548             	3.18141008e+02
549             	3.18145558e+02
550             	3.18150233e+02
551             	3.18155112e+02
552             	3.18159669e+02
553             	3.18164298e+02
554             	3.18168971e+02
555             	3.18173787e+02
556             	3.18178225e+02
557             	3.18182750e+02
558             	3.18187341e+02
559             	3.18191844e+02
560             	3.18196386e+02
561             	3.18200924e+02
562             	3.18205454e+02
563             	3.18210092e+02
564             	3.18214648e+02
565             	3.18219107e+02
566             	3.18223532e+02
567             	3.18227848e+02
568             	3.18232193e+02
569             	3.18236533e+02
570             	3.18240652e+02
571             	3.18245010e+02
572             	3.18249354e+02
573             	3.18253411e+02
574             	3.18257567e+02
575             	3.18261937e+02
576             	3.18265962e+02
577             	3.18270069e+02
578             	3.18274231e+02
579             	3.18278306e+02
580             	3.18282413e+02
581             	3.18286524e+02
582             	3.18290388e+02
583             	3.18294491e+02
584             	3.18298585e+02
585             	3.18302389e+02
586             	3.18306298e+02
587             	3.18310428e+02
588             	3.18314206e+02
589             	3.18318072e+02
590             	3.18321999e+02
591             	3.18325854e+02
592             	3.18329735e+02
593             	3.18333610e+02
594             	3.18337493e+02
595             	3.18341274e+02
596             	3.18345085e+02
597             	3.18348889e+02
598             	3.18352700e+02
599             	3.18356400e+02
600             	3.18360129e+02
601             	3.18363856e+02
602             	3.18367591e+02
603             	3.18371217e+02
604             	3.18374880e+02
605             	3.18378540e+02
606             	3.18381958e+02
607             	3.18385620e+02
608             	3.18389272e+02
609             	3.18392628e+02
610             	3.18396095e+02
611             	3.18399779e+02
612             	3.18403118e+02
613             	3.18406546e+02
614             	3.18410025e+02
615             	3.18413652e+02
616             	3.18416931e+02
617             	3.18420297e+02
618             	3.18423734e+02
619             	3.18427086e+02
620             	3.18430480e+02
621             	3.18433891e+02
622             	3.18437064e+02
623             	3.18440465e+02
624             	3.18443862e+02
625             	3.18446984e+02
626             	3.18450213e+02
627             	3.18453641e+02
628             	3.18456752e+02
629             	3.18459934e+02
630             	3.18463191e+02
631             	3.18466359e+02
632             	3.18469563e+02
633             	3.18472774e+02
634             	3.18475759e+02
635             	3.18478973e+02
636             	3.18482192e+02
637             	3.18485137e+02
638             	3.18488185e+02
639             	3.18491447e+02
640             	3.18494380e+02
641             	3.18497389e+02
642             	3.18500479e+02
643             	3.18503467e+02
644             	3.18506493e+02
645             	3.18509540e+02
646             	3.18512356e+02
647             	3.18515393e+02
648             	3.18518439e+02
649             	3.18521217e+02
650             	3.18524095e+02
651             	3.18527187e+02
652             	3.18529958e+02
653             	3.18532810e+02
654             	3.18535744e+02
655             	3.18538580e+02
656             	3.18541461e+02
657             	3.18544365e+02
658             	3.18547048e+02
659             	3.18549948e+02
660             	3.18552858e+02
661             	3.18555508e+02
662             	3.18558256e+02
663             	3.18561214e+02
664             	3.18563852e+02
665             	3.18566571e+02
666             	3.18569504e+02
667             	3.18572198e+02
668             	3.18574938e+02
669             	3.18577706e+02
670             	3.18580372e+02
671             	3.18583127e+02
672             	3.18585902e+02
673             	3.18588415e+02
674             	3.18591023e+02
675             	3.18593832e+02
676             	3.18596340e+02
677             	3.18598923e+02
678             	3.18601710e+02
679             	3.18604271e+02
680             	3.18606860e+02
681             	3.18609497e+02
682             	3.18612024e+02
683             	3.18614637e+02
684             	3.18617266e+02
685             	3.18619631e+02
686             	3.18622093e+02
687             	3.18624760e+02
688             	3.18627110e+02
689             	3.18629539e+02
690             	3.18632181e+02
691             	3.18634585e+02
692             	3.18637036e+02
693             	3.18639518e+02
694             	3.18641905e+02
695             	3.18644380e+02
696             	3.18646869e+02
697             	3.18649113e+02
698             	3.18651456e+02
699             	3.18653999e+02
700             	3.18656238e+02
701             	3.18658557e+02
702             	3.18661087e+02
703             	3.18663382e+02
704             	3.18665732e+02
705             	3.18668223e+02
706             	3.18670503e+02
707             	3.18672870e+02
708             	3.18675250e+02
709             	3.18677494e+02
710             	3.18679727e+02
711             	3.18682152e+02
712             	3.18684280e+02
713             	3.18686483e+02
714             	3.18688885e+02
715             	3.18691062e+02
716             	3.18693287e+02
717             	3.18695660e+02
718             	3.18697820e+02
719             	3.18700068e+02
720             	3.18702334e+02
721             	3.18704464e+02
722             	3.18706693e+02
723             	3.18709005e+02
724             	3.18711024e+02
725             	3.18713228e+02
726             	3.18715528e+02
727             	3.18717598e+02
728             	3.18719718e+02
729             	3.18721991e+02
730             	3.18724045e+02
731             	3.18726194e+02
732             	3.18728369e+02
733             	3.18730402e+02
734             	3.18732538e+02
735             	3.18734766e+02
736             	3.18736698e+02
737             	3.18738815e+02
738             	3.18741032e+02
739             	3.18743016e+02
740             	3.18745053e+02
741             	3.18747243e+02
742             	3.18749212e+02
743             	3.18751273e+02
744             	3.18753362e+02
745             	3.18755305e+02
746             	3.18757349e+02
747             	3.18759484e+02
748             	3.18761329e+02
749             	3.18763357e+02
750             	3.18765483e+02
751             	3.18767379e+02
752             	3.18769328e+02
753             	3.18771433e+02
754             	3.18773332e+02
755             	3.18775313e+02
756             	3.18777317e+02
757             	3.18779414e+02
758             	3.18781282e+02
759             	3.18783240e+02
760             	3.18785221e+02
761             	3.18787292e+02
762             	3.18789128e+02
763             	3.18791049e+02
764             	3.18793005e+02
765             	3.18794812e+02
766             	3.18796725e+02
767             	3.18798728e+02
768             	3.18800441e+02
769             	3.18802326e+02
770             	3.18804303e+02
771             	3.18806055e+02
772             	3.18807860e+02
773             	3.18809816e+02
774             	3.18811547e+02
775             	3.18813330e+02
776             	3.18815202e+02
777             	3.18816851e+02
778             	3.18818641e+02
779             	3.18820492e+02
780             	3.18822130e+02
781             	3.18823908e+02
782             	3.18825746e+02
783             	3.18827366e+02
784             	3.18829130e+02
785             	3.18830950e+02
786             	3.18832804e+02
787             	3.18834398e+02
788             	3.18836140e+02
789             	3.18837930e+02
790             	3.18839757e+02
791             	3.18841325e+02
792             	3.18843034e+02
793             	3.18844806e+02
794             	3.18846365e+02
795             	3.18848063e+02
796             	3.18849831e+02
797             	3.18851375e+02
798             	3.18853064e+02
799             	3.18854809e+02
800             	3.18856347e+02
801             	3.18858019e+02
802             	3.18859752e+02
803             	3.18861267e+02
804             	3.18862917e+02
805             	3.18864629e+02
806             	3.18866123e+02
807             	3.18867758e+02
808             	3.18869466e+02
809             	3.18870948e+02
810             	3.18872572e+02
811             	3.18874263e+02
812             	3.18875737e+02
813             	3.18877350e+02
814             	3.18879032e+02
815             	3.18880493e+02
816             	3.18882095e+02
817             	3.18883766e+02
818             	3.18885225e+02
819             	3.18886819e+02
820             	3.18888476e+02
821             	3.18889922e+02
822             	3.18891502e+02
823             	3.18893147e+02
824             	3.18894583e+02
825             	3.18896153e+02
826             	3.18897787e+02
827             	3.18899205e+02
828             	3.18900758e+02
829             	3.18902373e+02
830             	3.18903779e+02
831             	3.18905318e+02
832             	3.18906923e+02
833             	3.18908314e+02
834             	3.18909838e+02
835             	3.18911431e+02
836             	3.18912813e+02
837             	3.18914328e+02
838             	3.18915912e+02
839             	3.18917275e+02
840             	3.18918776e+02
841             	3.18920351e+02
842             	3.18921708e+02
843             	3.18923200e+02
844             	3.18924767e+02
845             	3.18926112e+02
846             	3.18927593e+02
847             	3.18929143e+02
848             	3.18930478e+02
849             	3.18931946e+02
850             	3.18933486e+02
851             	3.18934805e+02
852             	3.18936261e+02
853             	3.18937782e+02
854             	3.18939094e+02
855             	3.18940540e+02
856             	3.18942054e+02
857             	3.18943599e+02
858             	3.18944894e+02
859             	3.18946329e+02
860             	3.18947825e+02
861             	3.18949117e+02
862             	3.18950538e+02
863             	3.18952035e+02
864             	3.18953316e+02
865             	3.18954729e+02
866             	3.18956213e+02
867             	3.18957481e+02
868             	3.18958885e+02
869             	3.18960353e+02
870             	3.18961615e+02
871             	3.18963007e+02
872             	3.18964464e+02
873             	3.18965712e+02
874             	3.18967090e+02
875             	3.18968534e+02
876             	3.18969772e+02
877             	3.18971139e+02
878             	3.18972577e+02
879             	3.18973804e+02
880             	3.18975164e+02
881             	3.18976591e+02
882             	3.18977816e+02
883             	3.18979171e+02
884             	3.18980596e+02
885             	3.18981813e+02
886             	3.18983162e+02
887             	3.18984580e+02
888             	3.18985788e+02
889             	3.18987126e+02
890             	3.18988540e+02
891             	3.18989736e+02
892             	3.18991065e+02
893             	3.18992466e+02
894             	3.18993657e+02
895             	3.18994978e+02
896             	3.18996375e+02
897             	3.18997559e+02
898             	3.18998875e+02
899             	3.19000265e+02
900             	3.19001447e+02
901             	3.19002760e+02
902             	3.19004147e+02
903             	3.19005322e+02
904             	3.19006628e+02
905             	3.19008007e+02
906             	3.19009179e+02
907             	3.19010480e+02
908             	3.19011856e+02
909             	3.19013020e+02
910             	3.19014316e+02
911             	3.19015685e+02
912             	3.19016848e+02
913             	3.19018138e+02
914             	3.19019506e+02
915             	3.19020661e+02
916             	3.19021948e+02
917             	3.19023309e+02
918             	3.19024462e+02
919             	3.19025744e+02
920             	3.19027103e+02
921             	3.19028247e+02
922             	3.19029524e+02
923             	3.19030877e+02
924             	3.19032019e+02
925             	3.19033290e+02
926             	3.19034638e+02
927             	3.19035771e+02
928             	3.19037036e+02
929             	3.19038375e+02
930             	3.19039503e+02
931             	3.19040760e+02
932             	3.19042093e+02
933             	3.19043211e+02