# Region        : cellZone component_4
# Cells         : 293
# Volume        : 5.71924590e-01
# Time          	volAverage(T)
1               	3.00169690e+02
2               	3.00337751e+02
3               	3.00495851e+02
4               	3.00647171e+02
5               	3.00794667e+02
6               	3.00939628e+02
7               	3.01082583e+02
8               	3.01223927e+02
9               	3.01363997e+02
10              	3.01503004e+02
11              	3.01641302e+02
12              	3.01778497e+02
13              	3.01913977e+02
14              	3.02047873e+02
15              	3.02180183e+02
16              	3.02309721e+02
17              	3.02436087e+02
18              	3.02557196e+02
19              	3.02676684e+02
20              	3.02801376e+02
21              	3.02923506e+02
22              	3.03040372e+02
23              	3.03152734e+02
24              	3.03262809e+02
25              	3.03371239e+02
26              	3.03479053e+02
27              	3.03585405e+02
28              	3.03690816e+02
29              	3.03796795e+02
30              	3.03899984e+02
31              	3.03996694e+02
32              	3.04089899e+02
33              	3.04183112e+02
34              	3.04279382e+02
35              	3.04372594e+02
36              	3.04462278e+02
37              	3.04547301e+02
38              	3.04629567e+02
39              	3.04711475e+02
40              	3.04793777e+02
41              	3.04873730e+02
42              	3.04955082e+02
43              	3.05038990e+02
44              	3.05126742e+02
45              	3.05213566e+02
46              	3.05295443e+02
47              	3.05368023e+02
48              	3.05443261e+02
49              	3.05518453e+02
50              	3.05592429e+02
51              	3.05666111e+02
52              	3.05739253e+02
53              	3.05811315e+02
54              	3.05881424e+02
55              	3.05949225e+02
56              	3.06017171e+02
57              	3.06084267e+02
58              	3.06150401e+02
59              	3.06217782e+02
60              	3.06286903e+02
61              	3.06357988e+02
62              	3.06427664e+02
63              	3.06494065e+02
64              	3.06556831e+02
65              	3.06617979e+02
66              	3.06680814e+02
67              	3.06740539e+02
68              	3.06796134e+02
69              	3.06849058e+02
70              	3.06898651e+02
71              	3.06948033e+02
72              	3.06996624e+02
73              	3.07047317e+02
74              	3.07099584e+02
75              	3.07152770e+02
76              	3.07210002e+02
77              	3.07268901e+02
78              	3.07324534e+02
79              	3.07376901e+02
80              	3.07430527e+02
81              	3.07483071e+02
82              	3.07534937e+02
83              	3.07585746e+02
84              	3.07635875e+02
85              	3.07684671e+02
86              	3.07732708e+02
87              	3.07779712e+02
88              	3.07826243e+02
89              	3.07871417e+02
90              	3.07916591e+02
91              	3.07961363e+02
92              	3.08005816e+02
93              	3.08049373e+02
94              	3.08093062e+02
95              	3.08136273e+02
96              	3.08179061e+02
97              	3.08221247e+02
98              	3.08263297e+02
99              	3.08304638e+02
100             	3.08345326e+02
101             	3.08385298e+02
102             	3.08424505e+02
103             	3.08463134e+02
104             	3.08501203e+02
105             	3.08538783e+02
106             	3.08575889e+02
107             	3.08612362e+02
108             	3.08648455e+02
109             	3.08684136e+02
110             	3.08719394e+02
111             	3.08753716e+02
112             	3.08788208e+02
113             	3.08822538e+02
114             	3.08856554e+02
115             	3.08890238e+02
116             	3.08923632e+02
117             	3.08956358e+02
118             	3.08988766e+02
119             	3.09020778e+02
120             	3.09052193e+02
121             	3.09083227e+02
122             	3.09113766e+02
123             	3.09143809e+02
124             	3.09162546e+02
125             	3.09177203e+02
126             	3.09192143e+02
127             	3.09209571e+02
128             	3.09228742e+02
129             	3.09248663e+02
130             	3.09268992e+02
131             	3.09292531e+02
132             	3.09319204e+02
133             	3.09347840e+02
134             	3.09377425e+02
135             	3.09408159e+02
136             	3.09439231e+02
137             	3.09469918e+02
138             	3.09500301e+02
139             	3.09530354e+02
140             	3.09560151e+02
141             	3.09589726e+02
142             	3.09619086e+02
143             	3.09647981e+02
144             	3.09676601e+02
145             	3.09705129e+02
146             	3.09733377e+02
147             	3.09761855e+02
148             	3.09790718e+02
149             	3.09819662e+02
150             	3.09848600e+02
151             	3.09877539e+02
152             	3.09906518e+02
153             	3.09935775e+02
154             	3.09964574e+02
155             	3.09991565e+02
156             	3.10018776e+02
157             	3.10045203e+02
158             	3.10069898e+02
159             	3.10093280e+02
160             	3.10115726e+02
161             	3.10137565e+02
162             	3.10158874e+02
163             	3.10179632e+02
164             	3.10200538e+02
165             	3.10222022e+02
166             	3.10243662e+02
167             	3.10266004e+02
168             	3.10288822e+02
169             	3.10312306e+02
170             	3.10336205e+02
171             	3.10359997e+02
172             	3.10383811e+02
173             	3.10407372e+02
174             	3.10430558e+02
175             	3.10452481e+02
176             	3.10473302e+02
177             	3.10493158e+02
178             	3.10512447e+02
179             	3.10531251e+02
180             	3.10549726e+02
181             	3.10569374e+02
182             	3.10590098e+02
183             	3.10612637e+02
184             	3.10636615e+02
185             	3.10660851e+02
186             	3.10684404e+02
187             	3.10707490e+02
188             	3.10729371e+02
189             	3.10750093e+02
190             	3.10769792e+02
191             	3.10789073e+02
192             	3.10807878e+02
193             	3.10826299e+02
194             	3.10844272e+02
195             	3.10862344e+02
196             	3.10880970e+02
197             	3.10899833e+02
198             	3.10918925e+02
199             	3.10938024e+02
200             	3.10956811e+02
201             	3.10976273e+02
202             	3.10995705e+02
203             	3.11015229e+02
204             	3.11034906e+02
205             	3.11055011e+02
206             	3.11073996e+02
207             	3.11093043e+02
208             	3.11111493e+02
209             	3.11128892e+02
210             	3.11144676e+02
211             	3.11159625e+02
212             	3.11173421e+02
213             	3.11186683e+02
214             	3.11199127e+02
215             	3.11211889e+02
216             	3.11224750e+02
217             	3.11237840e+02
218             	3.11251655e+02
219             	3.11264986e+02
220             	3.11278955e+02
221             	3.11292984e+02
222             	3.11307244e+02
223             	3.11321512e+02
224             	3.11335947e+02
225             	3.11350134e+02
226             	3.11363997e+02
227             	3.11377213e+02
228             	3.11390026e+02
229             	3.11402343e+02
230             	3.11414410e+02
231             	3.11426733e+02
232             	3.11439312e+02
233             	3.11452434e+02
234             	3.11465302e+02
235             	3.11478189e+02
236             	3.11492020e+02
237             	3.11506439e+02
238             	3.11521363e+02
239             	3.11536318e+02
240             	3.11551340e+02
241             	3.11566292e+02
242             	3.11581077e+02
243             	3.11595883e+02
244             	3.11610603e+02
245             	3.11625103e+02
246             	3.11639745e+02
247             	3.11653327e+02
248             	3.11667008e+02
249             	3.11680392e+02
250             	3.11693353e+02
251             	3.11706539e+02
252             	3.11719683e+02
253             	3.11732708e+02
254             	3.11745337e+02
255             	3.11757621e+02
256             	3.11769613e+02
257             	3.11781439e+02
258             	3.11793486e+02
259             	3.11805684e+02
260             	3.11817938e+02
261             	3.11830154e+02
262             	3.11842210e+02
263             	3.11854050e+02
264             	3.11865606e+02
265             	3.11876586e+02
266             	3.11886892e+02
267             	3.11895774e+02
268             	3.11904239e+02
269             	3.11912675e+02
270             	3.11920686e+02
271             	3.11928551e+02
272             	3.11936243e+02
273             	3.11943752e+02
274             	3.11951196e+02
275             	3.11958753e+02
276             	3.11966827e+02
277             	3.11975372e+02
278             	3.11984605e+02
279             	3.11994194e+02
280             	3.12004190e+02
281             	3.12014300e+02
282             	3.12024308e+02
283             	3.12034360e+02
284             	3.12044337e+02
285             	3.12054105e+02
286             	3.12063782e+02
287             	3.12073587e+02
288             	3.12082998e+02
289             	3.12092432e+02
290             	3.12101630e+02
291             	3.12110602e+02
292             	3.12119348e+02
293             	3.12128178e+02
294             	3.12137035e+02
295             	3.12145841e+02
296             	3.12154630e+02
297             	3.12163378e+02
298             	3.12171596e+02
299             	3.12179791e+02
300             	3.12188302e+02
301             	3.12196922e+02
302             	3.12205428e+02
303             	3.12213969e+02
304             	3.12222470e+02
305             	3.12230967e+02
306             	3.12239648e+02
307             	3.12248427e+02
308             	3.12256776e+02
309             	3.12265069e+02
310             	3.12273573e+02
311             	3.12282189e+02
312             	3.12290809e+02
313             	3.12299260e+02
314             	3.12307556e+02
315             	3.12315586e+02
316             	3.12323301e+02
317             	3.12330640e+02
318             	3.12337588e+02
319             	3.12344350e+02
320             	3.12351141e+02
321             	3.12357944e+02
322             	3.12364626e+02
323             	3.12371513e+02
324             	3.12378549e+02
325             	3.12385601e+02
326             	3.12392729e+02
327             	3.12399891e+02
328             	3.12407047e+02
329             	3.12413968e+02
330             	3.12420829e+02
331             	3.12427653e+02
332             	3.12434380e+02
333             	3.12440930e+02
334             	3.12447572e+02
335             	3.12454036e+02
336             	3.12460232e+02
337             	3.12466255e+02
338             	3.12472184e+02
339             	3.12478043e+02
340             	3.12483867e+02
341             	3.12489633e+02
342             	3.12495291e+02
343             	3.12500946e+02
344             	3.12506659e+02
345             	3.12512374e+02
346             	3.12518035e+02
347             	3.12523671e+02
348             	3.12529364e+02
349             	3.12534390e+02
350             	3.12539388e+02
351             	3.12544478e+02
352             	3.12549610e+02
353             	3.12554698e+02
354             	3.12559703e+02
355             	3.12564661e+02
356             	3.12569552e+02
357             	3.12574460e+02
358             	3.12579282e+02
359             	3.12584134e+02
360             	3.12588955e+02
361             	3.12594066e+02
362             	3.12599153e+02
363             	3.12604287e+02
364             	3.12609461e+02
365             	3.12614616e+02
366             	3.12619731e+02
367             	3.12624806e+02
368             	3.12629792e+02
369             	3.12634787e+02
370             	3.12639863e+02
371             	3.12644990e+02
372             	3.12650092e+02
373             	3.12655162e+02
374             	3.12660188e+02
375             	3.12665176e+02
376             	3.12670112e+02
377             	3.12674998e+02
378             	3.12679817e+02
379             	3.12684646e+02
380             	3.12689390e+02
381             	3.12694056e+02
382             	3.12698647e+02
383             	3.12703169e+02
384             	3.12707595e+02
385             	3.12711932e+02
386             	3.12716227e+02
387             	3.12720491e+02
388             	3.12724716e+02
389             	3.12728870e+02
390             	3.12732905e+02
391             	3.12736943e+02
392             	3.12740990e+02
393             	3.12744969e+02
394             	3.12748898e+02
395             	3.12752739e+02
396             	3.12756689e+02
397             	3.12760626e+02
398             	3.12764560e+02
399             	3.12768487e+02
400             	3.12772347e+02
401             	3.12776095e+02
402             	3.12779786e+02
403             	3.12783272e+02
404             	3.12786503e+02
405             	3.12789729e+02
406             	3.12792987e+02
407             	3.12796229e+02
408             	3.12799392e+02
409             	3.12802483e+02
410             	3.12805517e+02
411             	3.12808512e+02
412             	3.12811519e+02
413             	3.12814545e+02
414             	3.12817521e+02
415             	3.12820444e+02
416             	3.12823292e+02
417             	3.12826098e+02
418             	3.12828956e+02
419             	3.12831873e+02
420             	3.12834699e+02
421             	3.12837559e+02
422             	3.12840478e+02
423             	3.12843354e+02
424             	3.12846250e+02
425             	3.12849059e+02
426             	3.12851817e+02
427             	3.12854571e+02
428             	3.12857313e+02
429             	3.12860121e+02
430             	3.12863011e+02
431             	3.12865889e+02
432             	3.12868705e+02
433             	3.12871615e+02
434             	3.12874587e+02
435             	3.12877572e+02
436             	3.12880531e+02
437             	3.12883437e+02
438             	3.12886279e+02
439             	3.12889090e+02
440             	3.12891876e+02
441             	3.12894617e+02
442             	3.12897355e+02
443             	3.12900063e+02
444             	3.12902745e+02
445             	3.12905454e+02
446             	3.12908214e+02
447             	3.12911023e+02
448             	3.12913866e+02
449             	3.12916660e+02
450             	3.12919395e+02
451             	3.12922122e+02
452             	3.12924823e+02
453             	3.12927564e+02
454             	3.12930216e+02
455             	3.12932755e+02
456             	3.12935166e+02
457             	3.12937515e+02
458             	3.12939828e+02
459             	3.12942095e+02
460             	3.12944368e+02
461             	3.12946583e+02
462             	3.12948665e+02
463             	3.12950669e+02
464             	3.12952593e+02
465             	3.12954429e+02
466             	3.12956190e+02
467             	3.12957929e+02
468             	3.12959652e+02
469             	3.12961339e+02
470             	3.12962988e+02
471             	3.12964602e+02
472             	3.12966214e+02
473             	3.12967892e+02
474             	3.12969570e+02
475             	3.12971167e+02
476             	3.12972742e+02
477             	3.12974343e+02
478             	3.12976006e+02
479             	3.12977640e+02
480             	3.12979270e+02
481             	3.12980835e+02
482             	3.12982351e+02
483             	3.12983920e+02
484             	3.12985590e+02
485             	3.12987310e+02
486             	3.12989056e+02
487             	3.12990805e+02
488             	3.12992538e+02
489             	3.12994268e+02
490             	3.12996017e+02
491             	3.12997762e+02
492             	3.12999475e+02
493             	3.13001216e+02
494             	3.13002996e+02
495             	3.13004769e+02
496             	3.13006560e+02
497             	3.13008346e+02
498             	3.13010129e+02
499             	3.13011904e+02
500             	3.13013690e+02
501             	3.13015481e+02
502             	3.13017309e+02
503             	3.13019153e+02
504             	3.13020996e+02
505             	3.13022804e+02
506             	3.13024615e+02
507             	3.13026448e+02
508             	3.13028285e+02
509             	3.13030120e+02
510             	3.13031968e+02
511             	3.13033752e+02
512             	3.13035535e+02
513             	3.13037291e+02
514             	3.13039006e+02
515             	3.13040670e+02
516             	3.13042286e+02
517             	3.13043855e+02
518             	3.13045307e+02
519             	3.13046692e+02
520             	3.13048006e+02
521             	3.13049252e+02
522             	3.13050420e+02
523             	3.13051532e+02
524             	3.13052602e+02
525             	3.13053642e+02
526             	3.13054659e+02
527             	3.13055676e+02
528             	3.13056692e+02
529             	3.13057700e+02
530             	3.13058697e+02
531             	3.13059741e+02
532             	3.13060759e+02
533             	3.13061749e+02
534             	3.13062703e+02
535             	3.13063599e+02
536             	3.13064467e+02
537             	3.13065314e+02
538             	3.13066134e+02
539             	3.13066955e+02
540             	3.13067747e+02
541             	3.13068501e+02
542             	3.13069265e+02
543             	3.13070034e+02
544             	3.13070803e+02
545             	3.13071560e+02
546             	3.13072225e+02
547             	3.13072903e+02
548             	3.13073612e+02
549             	3.13074400e+02
550             	3.13075205e+02
551             	3.13076051e+02
552             	3.13076946e+02
553             	3.13077894e+02
554             	3.13078863e+02
555             	3.13079823e+02
556             	3.13080847e+02
557             	3.13081905e+02
558             	3.13082971e+02
559             	3.13084044e+02
560             	3.13085134e+02
561             	3.13086238e+02
562             	3.13087307e+02
563             	3.13088410e+02
564             	3.13089562e+02
565             	3.13090651e+02
566             	3.13091706e+02
567             	3.13092757e+02
568             	3.13093807e+02
569             	3.13094852e+02
570             	3.13095925e+02
571             	3.13096992e+02
572             	3.13098075e+02
573             	3.13099163e+02
574             	3.13100232e+02
575             	3.13101302e+02
576             	3.13102372e+02
577             	3.13103448e+02
578             	3.13104558e+02
579             	3.13105650e+02
580             	3.13106739e+02
581             	3.13107782e+02
582             	3.13108786e+02
583             	3.13109741e+02
584             	3.13110672e+02
585             	3.13111528e+02
586             	3.13112323e+02
587             	3.13113064e+02
588             	3.13113765e+02
589             	3.13114402e+02
590             	3.13115006e+02
591             	3.13115578e+02
592             	3.13116111e+02
593             	3.13116621e+02
594             	3.13117110e+02
595             	3.13117588e+02
596             	3.13118036e+02
597             	3.13118455e+02
598             	3.13118863e+02
599             	3.13119254e+02
600             	3.13119622e+02
601             	3.13120015e+02
602             	3.13120429e+02
603             	3.13120865e+02
604             	3.13121301e+02
605             	3.13121728e+02
606             	3.13122129e+02
607             	3.13122519e+02
608             	3.13122929e+02
609             	3.13123322e+02
610             	3.13123707e+02
611             	3.13124098e+02
612             	3.13124469e+02
613             	3.13124797e+02
614             	3.13125167e+02
615             	3.13125599e+02
616             	3.13126088e+02
617             	3.13126622e+02
618             	3.13127170e+02
619             	3.13127743e+02
620             	3.13128326e+02
621             	3.13128915e+02
622             	3.13129528e+02
623             	3.13130128e+02
624             	3.13130752e+02
625             	3.13131400e+02
626             	3.13132064e+02
627             	3.13132725e+02
628             	3.13133410e+02
629             	3.13134068e+02
630             	3.13134758e+02
631             	3.13135454e+02
632             	3.13136149e+02
633             	3.13136863e+02
634             	3.13137545e+02
635             	3.13138227e+02
636             	3.13138903e+02
637             	3.13139570e+02
638             	3.13140223e+02
639             	3.13140905e+02
640             	3.13141542e+02
641             	3.13142162e+02
642             	3.13142782e+02
643             	3.13143364e+02
644             	3.13143982e+02
645             	3.13144594e+02
646             	3.13145157e+02
647             	3.13145722e+02
648             	3.13146232e+02
649             	3.13146730e+02
650             	3.13147185e+02
651             	3.13147606e+02
652             	3.13148005e+02
653             	3.13148383e+02
654             	3.13148728e+02
655             	3.13149037e+02
656             	3.13149340e+02
657             	3.13149618e+02
658             	3.13149900e+02
659             	3.13150172e+02
660             	3.13150452e+02
661             	3.13150695e+02
662             	3.13150923e+02
663             	3.13151133e+02
664             	3.13151336e+02
665             	3.13151513e+02
666             	3.13151684e+02
667             	3.13151872e+02
668             	3.13152073e+02
669             	3.13152288e+02
670             	3.13152491e+02
671             	3.13152702e+02
672             	3.13152918e+02
673             	3.13153120e+02
674             	3.13153315e+02
675             	3.13153496e+02
676             	3.13153662e+02
677             	3.13153814e+02
678             	3.13153965e+02
679             	3.13154106e+02
680             	3.13154299e+02
681             	3.13154495e+02
682             	3.13154713e+02
683             	3.13154973e+02
684             	3.13155267e+02
685             	3.13155587e+02
686             	3.13155914e+02
687             	3.13156266e+02
688             	3.13156652e+02
689             	3.13157063e+02
690             	3.13157492e+02
691             	3.13157949e+02
692             	3.13158437e+02
693             	3.13158943e+02
694             	3.13159450e+02
695             	3.13159959e+02
696             	3.13160446e+02
697             	3.13160938e+02
698             	3.13161444e+02
699             	3.13161937e+02
700             	3.13162408e+02
701             	3.13162870e+02
702             	3.13163294e+02
703             	3.13163719e+02
704             	3.13164146e+02
705             	3.13164575e+02
706             	3.13165001e+02
707             	3.13165391e+02
708             	3.13165769e+02
709             	3.13166133e+02
710             	3.13166467e+02
711             	3.13166822e+02
712             	3.13167146e+02
713             	3.13167454e+02
714             	3.13167742e+02
715             	3.13168034e+02
716             	3.13168324e+02
717             	3.13168582e+02
718             	3.13168803e+02
719             	3.13169006e+02
720             	3.13169188e+02
721             	3.13169351e+02
722             	3.13169492e+02
723             	3.13169600e+02
724             	3.13169681e+02
725             	3.13169745e+02
726             	3.13169784e+02
727             	3.13169800e+02
728             	3.13169827e+02
729             	3.13169834e+02
730             	3.13169826e+02
731             	3.13169841e+02
732             	3.13169852e+02
733             	3.13169868e+02
734             	3.13169871e+02
735             	3.13169895e+02
736             	3.13169945e+02
737             	3.13169982e+02
738             	3.13170051e+02
739             	3.13170126e+02
740             	3.13170226e+02
741             	3.13170340e+02
742             	3.13170466e+02
743             	3.13170596e+02
744             	3.13170741e+02
745             	3.13170896e+02
746             	3.13171072e+02
747             	3.13171265e+02
748             	3.13171446e+02
749             	3.13171642e+02
750             	3.13171840e+02
751             	3.13172012e+02
752             	3.13172181e+02
753             	3.13172368e+02
754             	3.13172574e+02
755             	3.13172796e+02
756             	3.13173047e+02
757             	3.13173311e+02
758             	3.13173575e+02
759             	3.13173849e+02
760             	3.13174112e+02
761             	3.13174375e+02
762             	3.13174634e+02
763             	3.13174885e+02
764             	3.13175121e+02
765             	3.13175360e+02
766             	3.13175622e+02
767             	3.13175908e+02
768             	3.13176178e+02
769             	3.13176445e+02
770             	3.13176699e+02
771             	3.13176950e+02
772             	3.13177202e+02
773             	3.13177447e+02
774             	3.13177660e+02
775             	3.13177842e+02
776             	3.13178014e+02
777             	3.13178173e+02
778             	3.13178306e+02
779             	3.13178398e+02
780             	3.13178480e+02
781             	3.13178556e+02
782             	3.13178606e+02
783             	3.13178678e+02
784             	3.13178731e+02
785             	3.13178766e+02
786             	3.13178773e+02
787             	3.13178785e+02
788             	3.13178822e+02
789             	3.13178853e+02
790             	3.13178862e+02
791             	3.13178907e+02
792             	3.13178954e+02
793             	3.13178989e+02
794             	3.13179011e+02
795             	3.13179041e+02
796             	3.13179052e+02
797             	3.13179061e+02
798             	3.13179067e+02
799             	3.13179063e+02
800             	3.13179058e+02
801             	3.13179043e+02
802             	3.13179013e+02
803             	3.13178974e+02
804             	3.13178948e+02
805             	3.13178941e+02
806             	3.13178929e+02
807             	3.13178949e+02
808             	3.13179003e+02
809             	3.13179083e+02
810             	3.13179174e+02
811             	3.13179277e+02
812             	3.13179399e+02
813             	3.13179540e+02
814             	3.13179692e+02
815             	3.13179868e+02
816             	3.13180076e+02
817             	3.13180293e+02
818             	3.13180523e+02
819             	3.13180770e+02
820             	3.13181029e+02
821             	3.13181286e+02
822             	3.13181535e+02
823             	3.13181762e+02
824             	3.13181964e+02
825             	3.13182155e+02
826             	3.13182336e+02
827             	3.13182510e+02
828             	3.13182689e+02
829             	3.13182876e+02
830             	3.13183040e+02
831             	3.13183189e+02
832             	3.13183356e+02
833             	3.13183520e+02
834             	3.13183668e+02
835             	3.13183805e+02
836             	3.13183943e+02
837             	3.13184087e+02
838             	3.13184234e+02
839             	3.13184370e+02
840             	3.13184497e+02
841             	3.13184621e+02
842             	3.13184749e+02
843             	3.13184871e+02
844             	3.13184953e+02
845             	3.13185002e+02
846             	3.13185033e+02
847             	3.13185053e+02
848             	3.13185098e+02
849             	3.13185143e+02
850             	3.13185170e+02
851             	3.13185182e+02
852             	3.13185192e+02
853             	3.13185204e+02
854             	3.13185208e+02
855             	3.13185208e+02
856             	3.13185198e+02
857             	3.13185179e+02
858             	3.13185155e+02
859             	3.13185124e+02
860             	3.13185088e+02
861             	3.13185048e+02
862             	3.13185012e+02
863             	3.13184974e+02
864             	3.13184943e+02
865             	3.13184915e+02
866             	3.13184892e+02
867             	3.13184873e+02
868             	3.13184852e+02
869             	3.13184853e+02
870             	3.13184886e+02
871             	3.13184938e+02
872             	3.13185007e+02
873             	3.13185048e+02
874             	3.13185114e+02
875             	3.13185198e+02
876             	3.13185288e+02
877             	3.13185358e+02
878             	3.13185424e+02
879             	3.13185495e+02
880             	3.13185583e+02
881             	3.13185657e+02
882             	3.13185722e+02
883             	3.13185806e+02
884             	3.13185887e+02
885             	3.13185968e+02
886             	3.13186047e+02
887             	3.13186127e+02
888             	3.13186208e+02
889             	3.13186316e+02
890             	3.13186451e+02
891             	3.13186610e+02
892             	3.13186797e+02
893             	3.13186990e+02
894             	3.13187193e+02
895             	3.13187386e+02
896             	3.13187578e+02
897             	3.13187740e+02
898             	3.13187888e+02
899             	3.13188015e+02
900             	3.13188159e+02
901             	3.13188317e+02
902             	3.13188439e+02
903             	3.13188546e+02
904             	3.13188655e+02
905             	3.13188774e+02
906             	3.13188871e+02
907             	3.13188962e+02
908             	3.13189041e+02
909             	3.13189110e+02
910             	3.13189193e+02
911             	3.13189235e+02
912             	3.13189243e+02
913             	3.13189234e+02
914             	3.13189209e+02
915             	3.13189216e+02
916             	3.13189240e+02
917             	3.13189269e+02
918             	3.13189265e+02
919             	3.13189228e+02
920             	3.13189208e+02
921             	3.13189173e+02
922             	3.13189141e+02
923             	3.13189139e+02
924             	3.13189130e+02
925             	3.13189106e+02
926             	3.13189069e+02
927             	3.13189021e+02
928             	3.13188960e+02
929             	3.13188929e+02
930             	3.13188926e+02
931             	3.13188923e+02
932             	3.13188906e+02
933             	3.13188886e+02