# Region        : cellZone component_4
# Cells         : 63
# Volume        : 8.97639631e-02
# Time          	volAverage(T)
1               	3.00423263e+02
2               	3.00838831e+02
3               	3.01230262e+02
4               	3.01609235e+02
5               	3.01981486e+02
6               	3.02349254e+02
7               	3.02713729e+02
8               	3.03075237e+02
9               	3.03434739e+02
10              	3.03791898e+02
11              	3.04145601e+02
12              	3.04495680e+02
13              	3.04842568e+02
14              	3.05188255e+02
15              	3.05529653e+02
16              	3.05859601e+02
17              	3.06180486e+02
18              	3.06495624e+02
19              	3.06807625e+02
20              	3.07124558e+02
21              	3.07438729e+02
22              	3.07749435e+02
23              	3.08056049e+02
24              	3.08360162e+02
25              	3.08660558e+02
26              	3.08960582e+02
27              	3.09255911e+02
28              	3.09546038e+02
29              	3.09826969e+02
30              	3.10104540e+02
31              	3.10373488e+02
32              	3.10638943e+02
33              	3.10900548e+02
34              	3.11160336e+02
35              	3.11417036e+02
36              	3.11670216e+02
37              	3.11920696e+02
38              	3.12170995e+02
39              	3.12420238e+02
40              	3.12672330e+02
41              	3.12911237e+02
42              	3.13144980e+02
43              	3.13367425e+02
44              	3.13581111e+02
45              	3.13778332e+02
46              	3.13969638e+02
47              	3.14171107e+02
48              	3.14375186e+02
49              	3.14570348e+02
50              	3.14758188e+02
51              	3.14941395e+02
52              	3.15130448e+02
53              	3.15331490e+02
54              	3.15532728e+02
55              	3.15725633e+02
56              	3.15921373e+02
57              	3.16105799e+02
58              	3.16296025e+02
59              	3.16489040e+02
60              	3.16675688e+02
61              	3.16853165e+02
62              	3.17026511e+02
63              	3.17191973e+02
64              	3.17367961e+02
65              	3.17550111e+02
66              	3.17733770e+02
67              	3.17923329e+02
68              	3.18109011e+02
69              	3.18284077e+02
70              	3.18447220e+02
71              	3.18607923e+02
72              	3.18766367e+02
73              	3.18918245e+02
74              	3.19065001e+02
75              	3.19205423e+02
76              	3.19344977e+02
77              	3.19486256e+02
78              	3.19630255e+02
79              	3.19779971e+02
80              	3.19927547e+02
81              	3.20070129e+02
82              	3.20213352e+02
83              	3.20355663e+02
84              	3.20503732e+02
85              	3.20644058e+02
86              	3.20791524e+02
87              	3.20931903e+02
88              	3.21073729e+02
89              	3.21211467e+02
90              	3.21349325e+02
91              	3.21490162e+02
92              	3.21633737e+02
93              	3.21781926e+02
94              	3.21931123e+02
95              	3.22080476e+02
96              	3.22229924e+02
97              	3.22379677e+02
98              	3.22527188e+02
99              	3.22674950e+02
100             	3.22820037e+02
101             	3.22967212e+02
102             	3.23117454e+02
103             	3.23270215e+02
104             	3.23422211e+02
105             	3.23572905e+02
106             	3.23720620e+02
107             	3.23866232e+02
108             	3.24009712e+02
109             	3.24152298e+02
110             	3.24296193e+02
111             	3.24441903e+02
112             	3.24591485e+02
113             	3.24743593e+02
114             	3.24897567e+02
115             	3.25052403e+02
116             	3.25205492e+02
117             	3.25356314e+02
118             	3.25507230e+02
119             	3.25653641e+02
120             	3.25798380e+02
121             	3.25941701e+02
122             	3.26083944e+02
123             	3.26217762e+02
124             	3.26351117e+02
125             	3.26484957e+02
126             	3.26617579e+02
127             	3.26748816e+02
128             	3.26880644e+02
129             	3.27012492e+02
130             	3.27145450e+02
131             	3.27281342e+02
132             	3.27419305e+02
133             	3.27558065e+02
134             	3.27688296e+02
135             	3.27821037e+02
136             	3.27950497e+02
137             	3.28079262e+02
138             	3.28205010e+02
139             	3.28327429e+02
140             	3.28448433e+02
141             	3.28567856e+02
142             	3.28683933e+02
143             	3.28798174e+02
144             	3.28913272e+02
145             	3.29029962e+02
146             	3.29148529e+02
147             	3.29270040e+02
148             	3.29394037e+02
149             	3.29520975e+02
150             	3.29648828e+02
151             	3.29773669e+02
152             	3.29894475e+02
153             	3.30012139e+02
154             	3.30124680e+02
155             	3.30234256e+02
156             	3.30342113e+02
157             	3.30448742e+02
158             	3.30553163e+02
159             	3.30655779e+02
160             	3.30757199e+02
161             	3.30858974e+02
162             	3.30961387e+02
163             	3.31064368e+02
164             	3.31168198e+02
165             	3.31272978e+02
166             	3.31378297e+02
167             	3.31484336e+02
168             	3.31591028e+02
169             	3.31695178e+02
170             	3.31799076e+02
171             	3.31898726e+02
172             	3.32000140e+02
173             	3.32103289e+02
174             	3.32206193e+02
175             	3.32309110e+02
176             	3.32411531e+02
177             	3.32513004e+02
178             	3.32614109e+02
179             	3.32714124e+02
180             	3.32813254e+02
181             	3.32911124e+02
182             	3.33005368e+02
183             	3.33097626e+02
184             	3.33186601e+02
185             	3.33272304e+02
186             	3.33354744e+02
187             	3.33435716e+02
188             	3.33515382e+02
189             	3.33594469e+02
190             	3.33673911e+02
191             	3.33753602e+02
192             	3.33834517e+02
193             	3.33916689e+02
194             	3.34000242e+02
195             	3.34084244e+02
196             	3.34169565e+02
197             	3.34256003e+02
198             	3.34343094e+02
199             	3.34429965e+02
200             	3.34515913e+02
201             	3.34601666e+02
202             	3.34685799e+02
203             	3.34768336e+02
204             	3.34849547e+02
205             	3.34929410e+02
206             	3.35007833e+02
207             	3.35085025e+02
208             	3.35160408e+02
209             	3.35234277e+02
210             	3.35307034e+02
211             	3.35379606e+02
212             	3.35449923e+02
213             	3.35518814e+02
214             	3.35586924e+02
215             	3.35654698e+02
216             	3.35719398e+02
217             	3.35783661e+02
218             	3.35847958e+02
219             	3.35912412e+02
220             	3.35976116e+02
221             	3.36039711e+02
222             	3.36104295e+02
223             	3.36169633e+02
224             	3.36235812e+02
225             	3.36302442e+02
226             	3.36369799e+02
227             	3.36437733e+02
228             	3.36504669e+02
229             	3.36566032e+02
230             	3.36625005e+02
231             	3.36682272e+02
232             	3.36738046e+02
233             	3.36792026e+02
234             	3.36845327e+02
235             	3.36898432e+02
236             	3.36951368e+02
237             	3.37004356e+02
238             	3.37058691e+02
239             	3.37114274e+02
240             	3.37170881e+02
241             	3.37228102e+02
242             	3.37285527e+02
243             	3.37342817e+02
244             	3.37400702e+02
245             	3.37456753e+02
246             	3.37511830e+02
247             	3.37565578e+02
248             	3.37617892e+02
249             	3.37668863e+02
250             	3.37718516e+02
251             	3.37767033e+02
252             	3.37814599e+02
253             	3.37861283e+02
254             	3.37907125e+02
255             	3.37952426e+02
256             	3.37997332e+02
257             	3.38041983e+02
258             	3.38086653e+02
259             	3.38131442e+02
260             	3.38176319e+02
261             	3.38221288e+02
262             	3.38266277e+02
263             	3.38311650e+02
264             	3.38357236e+02
265             	3.38402799e+02
266             	3.38447846e+02
267             	3.38492744e+02
268             	3.38537379e+02
269             	3.38581465e+02
270             	3.38624902e+02
271             	3.38667529e+02
272             	3.38709966e+02
273             	3.38752132e+02
274             	3.38794147e+02
275             	3.38835882e+02
276             	3.38877575e+02
277             	3.38917930e+02
278             	3.38957719e+02
279             	3.38995665e+02
280             	3.39032209e+02
281             	3.39067450e+02
282             	3.39101800e+02
283             	3.39135414e+02
284             	3.39168540e+02
285             	3.39201163e+02
286             	3.39233459e+02
287             	3.39266123e+02
288             	3.39298850e+02
289             	3.39331787e+02
290             	3.39365156e+02
291             	3.39398777e+02
292             	3.39432638e+02
293             	3.39466849e+02
294             	3.39500816e+02
295             	3.39534889e+02
296             	3.39568389e+02
297             	3.39601924e+02
298             	3.39635115e+02
299             	3.39668061e+02
300             	3.39700454e+02
301             	3.39732340e+02
302             	3.39763720e+02
303             	3.39794683e+02
304             	3.39825390e+02
305             	3.39855080e+02
306             	3.39884710e+02
307             	3.39912776e+02
308             	3.39939751e+02
309             	3.39965949e+02
310             	3.39991673e+02
311             	3.40016942e+02
312             	3.40041987e+02
313             	3.40066918e+02
314             	3.40091751e+02
315             	3.40116458e+02
316             	3.40141263e+02
317             	3.40166302e+02
318             	3.40191434e+02
319             	3.40216932e+02
320             	3.40242310e+02
321             	3.40268026e+02
322             	3.40293906e+02
323             	3.40319877e+02
324             	3.40346011e+02
325             	3.40372213e+02
326             	3.40398427e+02
327             	3.40424375e+02
328             	3.40450210e+02
329             	3.40475140e+02
330             	3.40499580e+02
331             	3.40523061e+02
332             	3.40545707e+02
333             	3.40567548e+02
334             	3.40588685e+02
335             	3.40609502e+02
336             	3.40629651e+02
337             	3.40650427e+02
338             	3.40671379e+02
339             	3.40693021e+02
340             	3.40715043e+02
341             	3.40737258e+02
342             	3.40759467e+02
343             	3.40781560e+02
344             	3.40803879e+02
345             	3.40826318e+02
346             	3.40848536e+02
347             	3.40870628e+02
348             	3.40892468e+02
349             	3.40913163e+02
350             	3.40933144e+02
351             	3.40952530e+02
352             	3.40971284e+02
353             	3.40989373e+02
354             	3.41006833e+02
355             	3.41023586e+02
356             	3.41040098e+02
357             	3.41056613e+02
358             	3.41073322e+02
359             	3.41090356e+02
360             	3.41107899e+02
361             	3.41126224e+02
362             	3.41145124e+02
363             	3.41164137e+02
364             	3.41183594e+02
365             	3.41202927e+02
366             	3.41221853e+02
367             	3.41240470e+02
368             	3.41258696e+02
369             	3.41276371e+02
370             	3.41293456e+02
371             	3.41310001e+02
372             	3.41325894e+02
373             	3.41341227e+02
374             	3.41356148e+02
375             	3.41370521e+02
376             	3.41385069e+02
377             	3.41399771e+02
378             	3.41414774e+02
379             	3.41429951e+02
380             	3.41445302e+02
381             	3.41460888e+02
382             	3.41476675e+02
383             	3.41492544e+02
384             	3.41508347e+02
385             	3.41523777e+02
386             	3.41538914e+02
387             	3.41553679e+02
388             	3.41568013e+02
389             	3.41582024e+02
390             	3.41595617e+02
391             	3.41608797e+02
392             	3.41621352e+02
393             	3.41633549e+02
394             	3.41645470e+02
395             	3.41657179e+02
396             	3.41668682e+02
397             	3.41680034e+02
398             	3.41691274e+02
399             	3.41702476e+02
400             	3.41713813e+02
401             	3.41725292e+02
402             	3.41736895e+02
403             	3.41748486e+02
404             	3.41760045e+02
405             	3.41771867e+02
406             	3.41783746e+02
407             	3.41795527e+02
408             	3.41807240e+02
409             	3.41818909e+02
410             	3.41830615e+02
411             	3.41842290e+02
412             	3.41853980e+02
413             	3.41865902e+02
414             	3.41877440e+02
415             	3.41888721e+02
416             	3.41899766e+02
417             	3.41910385e+02
418             	3.41920766e+02
419             	3.41930632e+02
420             	3.41940285e+02
421             	3.41949626e+02
422             	3.41958955e+02
423             	3.41968281e+02
424             	3.41977625e+02
425             	3.41987148e+02
426             	3.41996971e+02
427             	3.42007054e+02
428             	3.42017194e+02
429             	3.42027362e+02
430             	3.42037469e+02
431             	3.42047419e+02
432             	3.42057111e+02
433             	3.42066265e+02
434             	3.42075372e+02
435             	3.42084258e+02
436             	3.42093187e+02
437             	3.42102115e+02
438             	3.42111023e+02
439             	3.42119938e+02
440             	3.42128991e+02
441             	3.42137975e+02
442             	3.42146978e+02
443             	3.42155652e+02
444             	3.42164076e+02
445             	3.42172233e+02
446             	3.42180144e+02
447             	3.42187795e+02
448             	3.42195083e+02
449             	3.42202354e+02
450             	3.42209609e+02
451             	3.42216807e+02
452             	3.42224020e+02
453             	3.42231262e+02
454             	3.42238572e+02
455             	3.42245900e+02
456             	3.42253211e+02
457             	3.42260501e+02
458             	3.42267693e+02
459             	3.42274844e+02
460             	3.42281865e+02
461             	3.42288829e+02
462             	3.42295801e+02
463             	3.42302781e+02
464             	3.42309766e+02
465             	3.42316722e+02
466             	3.42323636e+02
467             	3.42330489e+02
468             	3.42337297e+02
469             	3.42344070e+02
470             	3.42350751e+02
471             	3.42357423e+02
472             	3.42364044e+02
473             	3.42370669e+02
474             	3.42377146e+02
475             	3.42383649e+02
476             	3.42390312e+02
477             	3.42397046e+02
478             	3.42403781e+02
479             	3.42410431e+02
480             	3.42417007e+02
481             	3.42423424e+02
482             	3.42429559e+02
483             	3.42435462e+02
484             	3.42441195e+02
485             	3.42446779e+02
486             	3.42452195e+02
487             	3.42457440e+02
488             	3.42462666e+02
489             	3.42467843e+02
490             	3.42472950e+02
491             	3.42478046e+02
492             	3.42483211e+02
493             	3.42488460e+02
494             	3.42493773e+02
495             	3.42498991e+02
496             	3.42504192e+02
497             	3.42509365e+02
498             	3.42514557e+02
499             	3.42519693e+02
500             	3.42524749e+02
501             	3.42529695e+02
502             	3.42534616e+02
503             	3.42539614e+02
504             	3.42544638e+02
505             	3.42549630e+02
506             	3.42554586e+02
507             	3.42559515e+02
508             	3.42564406e+02
509             	3.42569242e+02
510             	3.42574034e+02
511             	3.42578784e+02
512             	3.42583487e+02
513             	3.42588135e+02
514             	3.42592724e+02
515             	3.42597266e+02
516             	3.42601754e+02
517             	3.42606210e+02
518             	3.42610613e+02
519             	3.42614959e+02
520             	3.42619235e+02
521             	3.42623488e+02
522             	3.42627690e+02
523             	3.42631840e+02
524             	3.42635939e+02
525             	3.42639942e+02
526             	3.42643881e+02
527             	3.42647777e+02
528             	3.42651605e+02
529             	3.42655422e+02
530             	3.42659191e+02
531             	3.42662929e+02
532             	3.42666654e+02
533             	3.42670385e+02
534             	3.42674111e+02
535             	3.42677822e+02
536             	3.42681467e+02
537             	3.42685134e+02
538             	3.42688783e+02
539             	3.42692402e+02
540             	3.42695992e+02
541             	3.42699527e+02
542             	3.42703022e+02
543             	3.42706475e+02
544             	3.42709884e+02
545             	3.42713258e+02
546             	3.42716604e+02
547             	3.42719952e+02
548             	3.42723295e+02
549             	3.42726647e+02
550             	3.42729992e+02
551             	3.42733336e+02
552             	3.42736683e+02
553             	3.42740029e+02
554             	3.42743362e+02
555             	3.42746669e+02
556             	3.42749943e+02
557             	3.42753179e+02
558             	3.42756368e+02
559             	3.42759510e+02
560             	3.42762617e+02
561             	3.42765679e+02
562             	3.42768691e+02
563             	3.42771657e+02
564             	3.42774573e+02
565             	3.42777441e+02
566             	3.42780267e+02
567             	3.42783044e+02
568             	3.42785810e+02
569             	3.42788556e+02
570             	3.42791290e+02
571             	3.42794026e+02
572             	3.42796773e+02
573             	3.42799541e+02
574             	3.42802336e+02
575             	3.42805128e+02
576             	3.42807925e+02
577             	3.42810715e+02
578             	3.42813478e+02
579             	3.42816233e+02
580             	3.42818975e+02
581             	3.42821688e+02
582             	3.42824366e+02
583             	3.42826969e+02
584             	3.42829592e+02
585             	3.42832195e+02
586             	3.42834760e+02
587             	3.42837287e+02
588             	3.42839759e+02
589             	3.42842157e+02
590             	3.42844498e+02
591             	3.42846792e+02
592             	3.42849057e+02
593             	3.42851305e+02
594             	3.42853544e+02
595             	3.42855784e+02
596             	3.42858035e+02
597             	3.42860334e+02
598             	3.42862626e+02
599             	3.42864922e+02
600             	3.42867230e+02
601             	3.42869542e+02
602             	3.42871801e+02
603             	3.42874062e+02
604             	3.42876303e+02
605             	3.42878504e+02
606             	3.42880660e+02
607             	3.42882774e+02
608             	3.42884847e+02
609             	3.42886886e+02
610             	3.42888940e+02
611             	3.42890940e+02
612             	3.42892904e+02
613             	3.42894858e+02
614             	3.42896801e+02
615             	3.42898752e+02
616             	3.42900698e+02
617             	3.42902640e+02
618             	3.42904572e+02
619             	3.42906506e+02
620             	3.42908435e+02
621             	3.42910351e+02
622             	3.42912246e+02
623             	3.42914121e+02
624             	3.42915976e+02
625             	3.42917811e+02
626             	3.42919632e+02
627             	3.42921439e+02
628             	3.42923233e+02
629             	3.42925020e+02
630             	3.42926797e+02
631             	3.42928570e+02
632             	3.42930346e+02
633             	3.42932132e+02
634             	3.42933927e+02
635             	3.42935731e+02
636             	3.42937540e+02
637             	3.42939349e+02
638             	3.42941144e+02
639             	3.42942938e+02
640             	3.42944725e+02
641             	3.42946494e+02
642             	3.42948245e+02
643             	3.42949973e+02
644             	3.42951680e+02
645             	3.42953365e+02
646             	3.42955027e+02
647             	3.42956660e+02
648             	3.42958269e+02
649             	3.42959852e+02
650             	3.42961410e+02
651             	3.42962947e+02
652             	3.42964461e+02
653             	3.42965945e+02
654             	3.42967460e+02
655             	3.42968975e+02
656             	3.42970477e+02
657             	3.42971984e+02
658             	3.42973463e+02
659             	3.42974914e+02
660             	3.42976377e+02
661             	3.42977841e+02
662             	3.42979317e+02
663             	3.42980758e+02
664             	3.42982177e+02
665             	3.42983568e+02
666             	3.42984942e+02
667             	3.42986284e+02
668             	3.42987611e+02
669             	3.42988941e+02
670             	3.42990240e+02
671             	3.42991519e+02
672             	3.42992778e+02
673             	3.42994001e+02
674             	3.42995212e+02
675             	3.42996394e+02
676             	3.42997525e+02
677             	3.42998661e+02
678             	3.42999787e+02
679             	3.43000909e+02
680             	3.43002041e+02
681             	3.43003181e+02
682             	3.43004335e+02
683             	3.43005503e+02
684             	3.43006701e+02
685             	3.43007852e+02
686             	3.43008994e+02
687             	3.43010143e+02
688             	3.43011303e+02
689             	3.43012493e+02
690             	3.43013703e+02
691             	3.43014892e+02
692             	3.43016160e+02
693             	3.43017503e+02
694             	3.43018850e+02
695             	3.43020172e+02
696             	3.43021483e+02
697             	3.43022771e+02
698             	3.43024049e+02
699             	3.43025257e+02
700             	3.43026425e+02
701             	3.43027569e+02
702             	3.43028703e+02
703             	3.43029844e+02
704             	3.43030953e+02
705             	3.43032124e+02
706             	3.43033327e+02
707             	3.43034526e+02
708             	3.43035697e+02
709             	3.43036805e+02
710             	3.43037833e+02
711             	3.43038764e+02
712             	3.43039628e+02
713             	3.43040430e+02
714             	3.43041244e+02
715             	3.43042010e+02
716             	3.43042767e+02
717             	3.43043544e+02
718             	3.43044341e+02
719             	3.43045152e+02
720             	3.43045931e+02
721             	3.43046746e+02
722             	3.43047570e+02
723             	3.43048385e+02
724             	3.43049174e+02
725             	3.43049944e+02
726             	3.43050690e+02
727             	3.43051497e+02
728             	3.43052185e+02
729             	3.43052813e+02
730             	3.43053417e+02
731             	3.43054018e+02
732             	3.43054615e+02
733             	3.43055216e+02
734             	3.43055758e+02
735             	3.43056368e+02
736             	3.43057027e+02
737             	3.43057726e+02
738             	3.43058545e+02
739             	3.43059453e+02
740             	3.43060436e+02
741             	3.43061494e+02
742             	3.43062599e+02
743             	3.43063713e+02
744             	3.43064819e+02
745             	3.43065888e+02
746             	3.43066904e+02
747             	3.43067873e+02
748             	3.43068783e+02
749             	3.43069638e+02
750             	3.43070454e+02
751             	3.43071248e+02
752             	3.43072021e+02
753             	3.43072773e+02
754             	3.43073475e+02
755             	3.43074157e+02
756             	3.43074790e+02
757             	3.43075407e+02
758             	3.43075992e+02
759             	3.43076543e+02
760             	3.43077067e+02
761             	3.43077574e+02
762             	3.43078066e+02
763             	3.43078556e+02
764             	3.43079044e+02
765             	3.43079550e+02
766             	3.43080082e+02
767             	3.43080627e+02
768             	3.43081190e+02
769             	3.43081781e+02
770             	3.43082409e+02
771             	3.43082998e+02
772             	3.43083577e+02
773             	3.43084140e+02
774             	3.43084721e+02
775             	3.43085311e+02
776             	3.43085867e+02
777             	3.43086416e+02
778             	3.43086974e+02
779             	3.43087543e+02
780             	3.43088123e+02
781             	3.43088698e+02
782             	3.43089270e+02
783             	3.43089807e+02
784             	3.43090364e+02
785             	3.43090930e+02
786             	3.43091510e+02
787             	3.43092095e+02
788             	3.43092705e+02
789             	3.43093360e+02
790             	3.43093986e+02
791             	3.43094615e+02
792             	3.43095259e+02
793             	3.43095915e+02
794             	3.43096579e+02
795             	3.43097230e+02
796             	3.43097845e+02
797             	3.43098481e+02
798             	3.43099042e+02
799             	3.43099618e+02
800             	3.43100175e+02
801             	3.43100698e+02
802             	3.43101181e+02
803             	3.43101633e+02
804             	3.43102054e+02
805             	3.43102460e+02
806             	3.43102904e+02
807             	3.43103296e+02
808             	3.43103690e+02
809             	3.43104101e+02
810             	3.43104498e+02
811             	3.43104946e+02
812             	3.43105421e+02
813             	3.43105871e+02
814             	3.43106318e+02
815             	3.43106758e+02
816             	3.43107167e+02
817             	3.43107544e+02
818             	3.43107887e+02
819             	3.43108225e+02
820             	3.43108553e+02
821             	3.43108872e+02
822             	3.43109162e+02
823             	3.43109441e+02
824             	3.43109722e+02
825             	3.43110013e+02
826             	3.43110309e+02
827             	3.43110620e+02
828             	3.43110952e+02
829             	3.43111308e+02
830             	3.43111702e+02
831             	3.43112123e+02
832             	3.43112551e+02
833             	3.43112973e+02
834             	3.43113392e+02
835             	3.43113799e+02
836             	3.43114192e+02
837             	3.43114555e+02
838             	3.43114944e+02
839             	3.43115334e+02
840             	3.43115710e+02
841             	3.43116066e+02
842             	3.43116408e+02
843             	3.43116737e+02
844             	3.43117050e+02
845             	3.43117359e+02
846             	3.43117679e+02
847             	3.43118024e+02
848             	3.43118387e+02
849             	3.43118778e+02
850             	3.43119204e+02
851             	3.43119660e+02
852             	3.43120143e+02
853             	3.43120641e+02
854             	3.43121148e+02
855             	3.43121651e+02
856             	3.43122129e+02
857             	3.43122619e+02
858             	3.43123096e+02
859             	3.43123535e+02
860             	3.43123927e+02
861             	3.43124271e+02
862             	3.43124562e+02
863             	3.43124804e+02
864             	3.43125005e+02
865             	3.43125176e+02
866             	3.43125307e+02
867             	3.43125442e+02
868             	3.43125582e+02
869             	3.43125746e+02
870             	3.43125942e+02
871             	3.43126157e+02
872             	3.43126405e+02
873             	3.43126681e+02
874             	3.43126989e+02
875             	3.43127324e+02
876             	3.43127675e+02
877             	3.43128037e+02
878             	3.43128404e+02
879             	3.43128788e+02
880             	3.43129161e+02
881             	3.43129499e+02
882             	3.43129826e+02
883             	3.43130142e+02
884             	3.43130454e+02
885             	3.43130757e+02
886             	3.43131049e+02
887             	3.43131328e+02
888             	3.43131588e+02
889             	3.43131843e+02
890             	3.43132085e+02
891             	3.43132308e+02
892             	3.43132498e+02
893             	3.43132693e+02
894             	3.43132881e+02
895             	3.43133055e+02
896             	3.43133221e+02
897             	3.43133378e+02
898             	3.43133537e+02
899             	3.43133713e+02
900             	3.43133889e+02
901             	3.43134085e+02
902             	3.43134314e+02
903             	3.43134575e+02
904             	3.43134870e+02
905             	3.43135198e+02
906             	3.43135554e+02
907             	3.43135927e+02
908             	3.43136314e+02
909             	3.43136703e+02
910             	3.43137087e+02
911             	3.43137460e+02
912             	3.43137815e+02
913             	3.43138147e+02
914             	3.43138456e+02
915             	3.43138741e+02
916             	3.43139011e+02
917             	3.43139268e+02
918             	3.43139504e+02
919             	3.43139718e+02
920             	3.43139919e+02
921             	3.43140110e+02
922             	3.43140287e+02
923             	3.43140456e+02
924             	3.43140615e+02
925             	3.43140765e+02
926             	3.43140911e+02
927             	3.43141051e+02
928             	3.43141187e+02
929             	3.43141317e+02
930             	3.43141442e+02
931             	3.43141564e+02
932             	3.43141688e+02
933             	3.43141824e+02