# Region        : cellZone component_0
# Cells         : 480
# Volume        : 9.93839292e-01
# Time          	volAverage(T)
1               	3.00576373e+02
2               	3.01140786e+02
3               	3.01611166e+02
4               	3.02014021e+02
5               	3.02412058e+02
6               	3.02826459e+02
7               	3.03239723e+02
8               	3.03633175e+02
9               	3.04009032e+02
10              	3.04370693e+02
11              	3.04726922e+02
12              	3.05076507e+02
13              	3.05423284e+02
14              	3.05762685e+02
15              	3.06096727e+02
16              	3.06416494e+02
17              	3.06731600e+02
18              	3.07040842e+02
19              	3.07339787e+02
20              	3.07633349e+02
21              	3.07920392e+02
22              	3.08201357e+02
23              	3.08472561e+02
24              	3.08733747e+02
25              	3.08977086e+02
26              	3.09216954e+02
27              	3.09441044e+02
28              	3.09652133e+02
29              	3.09863881e+02
30              	3.10064489e+02
31              	3.10262333e+02
32              	3.10460183e+02
33              	3.10646124e+02
34              	3.10809739e+02
35              	3.10972384e+02
36              	3.11137405e+02
37              	3.11291344e+02
38              	3.11445601e+02
39              	3.11608468e+02
40              	3.11768858e+02
41              	3.11921515e+02
42              	3.12066383e+02
43              	3.12215587e+02
44              	3.12354303e+02
45              	3.12462048e+02
46              	3.12549538e+02
47              	3.12633913e+02
48              	3.12708314e+02
49              	3.12788801e+02
50              	3.12879429e+02
51              	3.13001696e+02
52              	3.13121884e+02
53              	3.13230194e+02
54              	3.13328134e+02
55              	3.13430404e+02
56              	3.13536797e+02
57              	3.13642238e+02
58              	3.13751970e+02
59              	3.13855296e+02
60              	3.13957235e+02
61              	3.14068462e+02
62              	3.14179507e+02
63              	3.14254728e+02
64              	3.14295684e+02
65              	3.14352732e+02
66              	3.14430763e+02
67              	3.14517319e+02
68              	3.14595202e+02
69              	3.14662285e+02
70              	3.14726251e+02
71              	3.14794480e+02
72              	3.14864140e+02
73              	3.14932852e+02
74              	3.14997098e+02
75              	3.15061104e+02
76              	3.15127273e+02
77              	3.15190461e+02
78              	3.15253684e+02
79              	3.15314677e+02
80              	3.15375533e+02
81              	3.15435899e+02
82              	3.15494834e+02
83              	3.15551306e+02
84              	3.15607219e+02
85              	3.15661578e+02
86              	3.15713975e+02
87              	3.15766422e+02
88              	3.15815747e+02
89              	3.15865334e+02
90              	3.15913381e+02
91              	3.15961500e+02
92              	3.16010353e+02
93              	3.16057943e+02
94              	3.16103656e+02
95              	3.16149615e+02
96              	3.16132537e+02
97              	3.16125134e+02
98              	3.16155313e+02
99              	3.16203926e+02
100             	3.16245794e+02
101             	3.16274457e+02
102             	3.16296473e+02
103             	3.16320419e+02
104             	3.16350637e+02
105             	3.16381717e+02
106             	3.16411232e+02
107             	3.16439145e+02
108             	3.16466859e+02
109             	3.16495959e+02
110             	3.16525314e+02
111             	3.16554547e+02
112             	3.16582365e+02
113             	3.16609722e+02
114             	3.16637344e+02
115             	3.16664607e+02
116             	3.16691618e+02
117             	3.16718045e+02
118             	3.16744255e+02
119             	3.16770343e+02
120             	3.16795955e+02
121             	3.16820068e+02
122             	3.16843658e+02
123             	3.16867252e+02
124             	3.16890559e+02
125             	3.16912863e+02
126             	3.16934489e+02
127             	3.16955502e+02
128             	3.16977473e+02
129             	3.16999289e+02
130             	3.17021145e+02
131             	3.17043106e+02
132             	3.17065225e+02
133             	3.17086963e+02
134             	3.17108561e+02
135             	3.17129793e+02
136             	3.17150163e+02
137             	3.17170474e+02
138             	3.17191073e+02
139             	3.17211362e+02
140             	3.17230600e+02
141             	3.17248929e+02
142             	3.17267029e+02
143             	3.17285166e+02
144             	3.17303151e+02
145             	3.17320810e+02
146             	3.17338215e+02
147             	3.17355780e+02
148             	3.17373449e+02
149             	3.17390980e+02
150             	3.17408182e+02
151             	3.17425236e+02
152             	3.17442141e+02
153             	3.17458857e+02
154             	3.17475395e+02
155             	3.17491756e+02
156             	3.17507991e+02
157             	3.17524122e+02
158             	3.17540058e+02
159             	3.17555752e+02
160             	3.17571238e+02
161             	3.17586443e+02
162             	3.17601510e+02
163             	3.17616401e+02
164             	3.17630731e+02
165             	3.17644821e+02
166             	3.17658876e+02
167             	3.17672644e+02
168             	3.17686071e+02
169             	3.17699279e+02
170             	3.17712481e+02
171             	3.17725784e+02
172             	3.17739017e+02
173             	3.17752036e+02
174             	3.17764841e+02
175             	3.17777939e+02
176             	3.17791073e+02
177             	3.17804055e+02
178             	3.17816873e+02
179             	3.17829499e+02
180             	3.17841943e+02
181             	3.17854132e+02
182             	3.17866129e+02
183             	3.17877954e+02
184             	3.17889558e+02
185             	3.17901114e+02
186             	3.17912521e+02
187             	3.17923919e+02
188             	3.17935043e+02
189             	3.17946052e+02
190             	3.17957129e+02
191             	3.17968186e+02
192             	3.17979045e+02
193             	3.17989672e+02
194             	3.18000062e+02
195             	3.18010234e+02
196             	3.18020204e+02
197             	3.18030083e+02
198             	3.18039923e+02
199             	3.18049747e+02
200             	3.18059564e+02
201             	3.18069208e+02
202             	3.18078740e+02
203             	3.18088285e+02
204             	3.18097899e+02
205             	3.18107507e+02
206             	3.18116970e+02
207             	3.18126270e+02
208             	3.18135096e+02
209             	3.18144049e+02
210             	3.18153131e+02
211             	3.18162015e+02
212             	3.18170495e+02
213             	3.18178725e+02
214             	3.18186991e+02
215             	3.18195355e+02
216             	3.18203671e+02
217             	3.18211787e+02
218             	3.18219725e+02
219             	3.18227636e+02
220             	3.18235570e+02
221             	3.18243374e+02
222             	3.18251099e+02
223             	3.18258692e+02
224             	3.18266238e+02
225             	3.18273865e+02
226             	3.18281468e+02
227             	3.18288957e+02
228             	3.18296269e+02
229             	3.18303512e+02
230             	3.18310813e+02
231             	3.18318102e+02
232             	3.18325317e+02
233             	3.18332473e+02
234             	3.18339348e+02
235             	3.18345952e+02
236             	3.18352825e+02
237             	3.18359846e+02
238             	3.18366628e+02
239             	3.18373080e+02
240             	3.18379378e+02
241             	3.18385641e+02
242             	3.18392041e+02
243             	3.18398523e+02
244             	3.18404710e+02
245             	3.18410656e+02
246             	3.18416767e+02
247             	3.18423047e+02
248             	3.18429349e+02
249             	3.18435512e+02
250             	3.18441550e+02
251             	3.18447567e+02
252             	3.18453643e+02
253             	3.18459416e+02
254             	3.18464983e+02
255             	3.18470630e+02
256             	3.18476326e+02
257             	3.18481819e+02
258             	3.18487071e+02
259             	3.18492253e+02
260             	3.18497515e+02
261             	3.18502813e+02
262             	3.18508043e+02
263             	3.18513199e+02
264             	3.18518346e+02
265             	3.18523491e+02
266             	3.18528611e+02
267             	3.18533607e+02
268             	3.18538502e+02
269             	3.18543462e+02
270             	3.18548434e+02
271             	3.18553328e+02
272             	3.18558125e+02
273             	3.18562923e+02
274             	3.18567773e+02
275             	3.18572674e+02
276             	3.18577390e+02
277             	3.18581924e+02
278             	3.18586674e+02
279             	3.18591445e+02
280             	3.18596026e+02
281             	3.18600433e+02
282             	3.18604836e+02
283             	3.18609295e+02
284             	3.18613719e+02
285             	3.18618011e+02
286             	3.18622192e+02
287             	3.18626321e+02
288             	3.18630222e+02
289             	3.18634139e+02
290             	3.18638059e+02
291             	3.18641924e+02
292             	3.18645741e+02
293             	3.18649647e+02
294             	3.18653576e+02
295             	3.18657528e+02
296             	3.18661495e+02
297             	3.18665455e+02
298             	3.18669377e+02
299             	3.18673228e+02
300             	3.18677041e+02
301             	3.18680675e+02
302             	3.18684330e+02
303             	3.18687940e+02
304             	3.18691441e+02
305             	3.18694834e+02
306             	3.18698184e+02
307             	3.18701564e+02
308             	3.18705059e+02
309             	3.18708621e+02
310             	3.18712121e+02
311             	3.18715494e+02
312             	3.18718841e+02
313             	3.18722155e+02
314             	3.18725446e+02
315             	3.18728547e+02
316             	3.18731477e+02
317             	3.18734397e+02
318             	3.18737402e+02
319             	3.18740421e+02
320             	3.18743365e+02
321             	3.18746207e+02
322             	3.18749144e+02
323             	3.18752211e+02
324             	3.18755294e+02
325             	3.18758279e+02
326             	3.18761193e+02
327             	3.18764143e+02
328             	3.18767171e+02
329             	3.18770152e+02
330             	3.18773026e+02
331             	3.18775696e+02
332             	3.18778408e+02
333             	3.18781173e+02
334             	3.18783839e+02
335             	3.18786436e+02
336             	3.18789032e+02
337             	3.18791648e+02
338             	3.18794233e+02
339             	3.18796779e+02
340             	3.18799311e+02
341             	3.18801824e+02
342             	3.18804304e+02
343             	3.18806758e+02
344             	3.18809203e+02
345             	3.18811655e+02
346             	3.18814081e+02
347             	3.18816482e+02
348             	3.18818889e+02
349             	3.18821297e+02
350             	3.18823675e+02
351             	3.18826029e+02
352             	3.18828360e+02
353             	3.18830689e+02
354             	3.18833020e+02
355             	3.18835334e+02
356             	3.18837617e+02
357             	3.18839869e+02
358             	3.18842087e+02
359             	3.18844269e+02
360             	3.18846413e+02
361             	3.18848534e+02
362             	3.18850644e+02
363             	3.18852743e+02
364             	3.18854835e+02
365             	3.18856896e+02
366             	3.18858968e+02
367             	3.18861034e+02
368             	3.18863082e+02
369             	3.18865136e+02
370             	3.18867182e+02
371             	3.18869218e+02
372             	3.18871278e+02
373             	3.18873288e+02
374             	3.18875268e+02
375             	3.18877229e+02
376             	3.18879212e+02
377             	3.18881163e+02
378             	3.18882873e+02
379             	3.18884494e+02
380             	3.18886287e+02
381             	3.18888137e+02
382             	3.18889820e+02
383             	3.18891332e+02
384             	3.18892840e+02
385             	3.18894445e+02
386             	3.18896069e+02
387             	3.18897612e+02
388             	3.18899105e+02
389             	3.18900646e+02
390             	3.18902243e+02
391             	3.18903828e+02
392             	3.18905345e+02
393             	3.18906900e+02
394             	3.18908502e+02
395             	3.18910074e+02
396             	3.18911572e+02
397             	3.18913058e+02
398             	3.18914631e+02
399             	3.18916278e+02
400             	3.18917951e+02
401             	3.18919482e+02
402             	3.18921053e+02
403             	3.18922609e+02
404             	3.18924117e+02
405             	3.18925561e+02
406             	3.18926977e+02
407             	3.18928306e+02
408             	3.18929562e+02
409             	3.18930857e+02
410             	3.18932203e+02
411             	3.18933455e+02
412             	3.18934583e+02
413             	3.18935741e+02
414             	3.18937017e+02
415             	3.18938354e+02
416             	3.18939637e+02
417             	3.18940839e+02
418             	3.18942044e+02
419             	3.18943299e+02
420             	3.18944598e+02
421             	3.18945821e+02
422             	3.18946975e+02
423             	3.18948211e+02
424             	3.18949478e+02
425             	3.18950710e+02
426             	3.18951834e+02
427             	3.18952944e+02
428             	3.18954141e+02
429             	3.18955404e+02
430             	3.18956612e+02
431             	3.18957735e+02
432             	3.18958877e+02
433             	3.18960111e+02
434             	3.18961432e+02
435             	3.18962736e+02
436             	3.18963844e+02
437             	3.18964720e+02
438             	3.18965793e+02
439             	3.18967028e+02
440             	3.18968134e+02
441             	3.18969008e+02
442             	3.18969795e+02
443             	3.18970677e+02
444             	3.18971652e+02
445             	3.18972588e+02
446             	3.18973400e+02
447             	3.18974210e+02
448             	3.18975138e+02
449             	3.18976139e+02
450             	3.18977125e+02
451             	3.18978074e+02
452             	3.18979016e+02
453             	3.18979987e+02
454             	3.18980994e+02
455             	3.18981964e+02
456             	3.18982898e+02
457             	3.18983828e+02
458             	3.18984791e+02
459             	3.18985797e+02
460             	3.18986794e+02
461             	3.18987756e+02
462             	3.18988692e+02
463             	3.18989610e+02
464             	3.18990534e+02
465             	3.18991448e+02
466             	3.18992343e+02
467             	3.18993114e+02
468             	3.18993909e+02
469             	3.18994776e+02
470             	3.18995643e+02
471             	3.18996442e+02
472             	3.18997144e+02
473             	3.18997811e+02
474             	3.18998516e+02
475             	3.18999271e+02
476             	3.19000030e+02
477             	3.19000765e+02
478             	3.19001476e+02
479             	3.19002187e+02
480             	3.19002905e+02
481             	3.19003631e+02
482             	3.19004360e+02
483             	3.19005093e+02
484             	3.19005836e+02
485             	3.19006594e+02
486             	3.19007377e+02
487             	3.19008128e+02
488             	3.19008828e+02
489             	3.19009522e+02
490             	3.19010244e+02
491             	3.19010982e+02
492             	3.19011692e+02
493             	3.19012367e+02
494             	3.19013038e+02
495             	3.19013759e+02
496             	3.19014521e+02
497             	3.19015280e+02
498             	3.19016021e+02
499             	3.19016766e+02
500             	3.19017531e+02
501             	3.19018307e+02
502             	3.19019082e+02
503             	3.19019800e+02
504             	3.19020424e+02
505             	3.19021066e+02
506             	3.19021678e+02
507             	3.19022291e+02
508             	3.19022819e+02
509             	3.19023296e+02
510             	3.19023725e+02
511             	3.19024151e+02
512             	3.19024613e+02
513             	3.19025073e+02
514             	3.19025470e+02
515             	3.19025831e+02
516             	3.19026225e+02
517             	3.19026683e+02
518             	3.19027164e+02
519             	3.19027607e+02
520             	3.19028019e+02
521             	3.19028443e+02
522             	3.19028893e+02
523             	3.19029345e+02
524             	3.19029750e+02
525             	3.19030080e+02
526             	3.19030425e+02
527             	3.19030840e+02
528             	3.19031261e+02
529             	3.19031624e+02
530             	3.19031941e+02
531             	3.19032322e+02
532             	3.19032788e+02
533             	3.19033310e+02
534             	3.19033847e+02
535             	3.19034384e+02
536             	3.19034900e+02
537             	3.19035433e+02
538             	3.19035974e+02
539             	3.19036484e+02
540             	3.19036944e+02
541             	3.19037387e+02
542             	3.19037802e+02
543             	3.19038224e+02
544             	3.19038637e+02
545             	3.19039014e+02
546             	3.19039349e+02
547             	3.19039698e+02
548             	3.19040120e+02
549             	3.19040656e+02
550             	3.19041169e+02
551             	3.19041621e+02
552             	3.19042035e+02
553             	3.19042368e+02
554             	3.19042788e+02
555             	3.19043228e+02
556             	3.19043571e+02
557             	3.19043844e+02
558             	3.19044153e+02
559             	3.19044505e+02
560             	3.19044817e+02
561             	3.19045052e+02
562             	3.19045282e+02
563             	3.19045571e+02
564             	3.19045922e+02
565             	3.19046255e+02
566             	3.19046514e+02
567             	3.19046746e+02
568             	3.19047031e+02
569             	3.19047377e+02
570             	3.19047723e+02
571             	3.19048010e+02
572             	3.19048248e+02
573             	3.19048505e+02
574             	3.19048831e+02
575             	3.19049195e+02
576             	3.19049517e+02
577             	3.19049774e+02
578             	3.19049996e+02
579             	3.19050248e+02
580             	3.19050548e+02
581             	3.19050869e+02
582             	3.19051150e+02
583             	3.19051398e+02
584             	3.19051656e+02
585             	3.19051929e+02
586             	3.19052196e+02
587             	3.19052464e+02
588             	3.19052776e+02
589             	3.19053120e+02
590             	3.19053501e+02
591             	3.19053887e+02
592             	3.19054257e+02
593             	3.19054626e+02
594             	3.19055008e+02
595             	3.19055383e+02
596             	3.19055654e+02
597             	3.19055891e+02
598             	3.19056049e+02
599             	3.19056289e+02
600             	3.19056539e+02
601             	3.19056685e+02
602             	3.19056730e+02
603             	3.19056783e+02
604             	3.19056895e+02
605             	3.19057002e+02
606             	3.19057110e+02
607             	3.19057236e+02
608             	3.19057440e+02
609             	3.19057667e+02
610             	3.19057916e+02
611             	3.19058248e+02
612             	3.19058658e+02
613             	3.19059027e+02
614             	3.19059301e+02
615             	3.19059537e+02
616             	3.19059805e+02
617             	3.19060126e+02
618             	3.19060450e+02
619             	3.19060742e+02
620             	3.19060989e+02
621             	3.19061208e+02
622             	3.19061427e+02
623             	3.19061651e+02
624             	3.19061883e+02
625             	3.19062170e+02
626             	3.19062497e+02
627             	3.19062781e+02
628             	3.19063045e+02
629             	3.19063341e+02
630             	3.19063674e+02
631             	3.19064023e+02
632             	3.19064352e+02
633             	3.19064665e+02
634             	3.19064991e+02
635             	3.19065088e+02
636             	3.19065059e+02
637             	3.19065306e+02
638             	3.19065703e+02
639             	3.19065897e+02
640             	3.19065805e+02
641             	3.19065661e+02
642             	3.19065618e+02
643             	3.19065643e+02
644             	3.19065630e+02
645             	3.19065563e+02
646             	3.19065543e+02
647             	3.19065623e+02
648             	3.19065752e+02
649             	3.19065842e+02
650             	3.19065888e+02
651             	3.19065922e+02
652             	3.19065999e+02
653             	3.19066142e+02
654             	3.19066251e+02
655             	3.19066314e+02
656             	3.19066360e+02
657             	3.19066434e+02
658             	3.19066572e+02
659             	3.19066770e+02
660             	3.19066963e+02
661             	3.19067180e+02
662             	3.19067442e+02
663             	3.19067742e+02
664             	3.19068015e+02
665             	3.19068272e+02
666             	3.19068571e+02
667             	3.19068883e+02
668             	3.19069119e+02
669             	3.19069251e+02
670             	3.19069388e+02
671             	3.19069652e+02
672             	3.19069941e+02
673             	3.19070077e+02
674             	3.19070172e+02
675             	3.19070359e+02
676             	3.19070545e+02
677             	3.19070647e+02
678             	3.19070713e+02
679             	3.19070766e+02
680             	3.19070783e+02
681             	3.19070725e+02
682             	3.19070617e+02
683             	3.19070429e+02
684             	3.19070296e+02
685             	3.19070350e+02
686             	3.19070521e+02
687             	3.19070618e+02
688             	3.19070664e+02
689             	3.19070768e+02
690             	3.19070967e+02
691             	3.19071200e+02
692             	3.19071394e+02
693             	3.19071566e+02
694             	3.19071757e+02
695             	3.19071962e+02
696             	3.19072128e+02
697             	3.19072257e+02
698             	3.19072407e+02
699             	3.19072618e+02
700             	3.19072831e+02
701             	3.19073033e+02
702             	3.19073192e+02
703             	3.19073271e+02
704             	3.19073323e+02
705             	3.19073424e+02
706             	3.19073579e+02
707             	3.19073796e+02
708             	3.19074000e+02
709             	3.19074211e+02
710             	3.19074510e+02
711             	3.19074882e+02
712             	3.19075051e+02
713             	3.19074772e+02
714             	3.19074590e+02
715             	3.19074708e+02
716             	3.19074871e+02
717             	3.19074823e+02
718             	3.19074601e+02
719             	3.19074448e+02
720             	3.19074477e+02
721             	3.19074591e+02
722             	3.19074660e+02
723             	3.19074671e+02
724             	3.19074725e+02
725             	3.19074875e+02
726             	3.19074977e+02
727             	3.19074983e+02
728             	3.19074954e+02
729             	3.19075042e+02
730             	3.19075184e+02
731             	3.19075325e+02
732             	3.19075430e+02
733             	3.19075526e+02
734             	3.19075652e+02
735             	3.19075896e+02
736             	3.19076208e+02
737             	3.19076200e+02
738             	3.19076132e+02
739             	3.19076424e+02
740             	3.19076867e+02
741             	3.19077023e+02
742             	3.19076822e+02
743             	3.19076600e+02
744             	3.19076572e+02
745             	3.19076495e+02
746             	3.19076266e+02
747             	3.19075951e+02
748             	3.19075821e+02
749             	3.19075992e+02
750             	3.19076249e+02
751             	3.19076378e+02
752             	3.19076458e+02
753             	3.19076702e+02
754             	3.19077146e+02
755             	3.19077515e+02
756             	3.19077741e+02
757             	3.19077868e+02
758             	3.19078094e+02
759             	3.19078283e+02
760             	3.19078321e+02
761             	3.19078277e+02
762             	3.19078252e+02
763             	3.19078334e+02
764             	3.19078457e+02
765             	3.19078649e+02
766             	3.19078792e+02
767             	3.19078831e+02
768             	3.19078827e+02
769             	3.19078860e+02
770             	3.19078923e+02
771             	3.19078826e+02
772             	3.19078582e+02
773             	3.19078373e+02
774             	3.19078245e+02
775             	3.19078166e+02
776             	3.19078028e+02
777             	3.19077895e+02
778             	3.19077864e+02
779             	3.19077898e+02
780             	3.19077897e+02
781             	3.19077815e+02
782             	3.19077791e+02
783             	3.19077807e+02
784             	3.19077867e+02
785             	3.19077977e+02
786             	3.19078155e+02
787             	3.19078383e+02
788             	3.19078650e+02
789             	3.19078828e+02
790             	3.19078823e+02
791             	3.19078914e+02
792             	3.19079244e+02
793             	3.19079475e+02
794             	3.19079445e+02
795             	3.19079207e+02
796             	3.19079010e+02
797             	3.19079014e+02
798             	3.19079106e+02
799             	3.19079103e+02
800             	3.19078993e+02
801             	3.19078896e+02
802             	3.19078903e+02
803             	3.19078982e+02
804             	3.19078908e+02
805             	3.19078793e+02
806             	3.19078724e+02
807             	3.19078744e+02
808             	3.19078803e+02
809             	3.19078807e+02
810             	3.19078757e+02
811             	3.19078745e+02
812             	3.19078820e+02
813             	3.19078950e+02
814             	3.19079086e+02
815             	3.19079206e+02
816             	3.19079369e+02
817             	3.19079589e+02
818             	3.19079811e+02
819             	3.19079827e+02
820             	3.19079878e+02
821             	3.19080055e+02
822             	3.19080243e+02
823             	3.19080265e+02
824             	3.19080196e+02
825             	3.19080209e+02
826             	3.19080262e+02
827             	3.19080272e+02
828             	3.19080217e+02
829             	3.19080155e+02
830             	3.19080162e+02
831             	3.19080241e+02
832             	3.19080309e+02
833             	3.19080340e+02
834             	3.19080370e+02
835             	3.19080431e+02
836             	3.19080512e+02
837             	3.19080573e+02
838             	3.19080619e+02
839             	3.19080666e+02
840             	3.19080710e+02
841             	3.19080743e+02
842             	3.19080769e+02
843             	3.19080796e+02
844             	3.19080828e+02
845             	3.19080862e+02
846             	3.19080892e+02
847             	3.19080913e+02
848             	3.19080935e+02
849             	3.19080980e+02
850             	3.19081040e+02
851             	3.19081094e+02
852             	3.19081142e+02
853             	3.19081186e+02
854             	3.19081154e+02
855             	3.19081152e+02
856             	3.19081205e+02
857             	3.19081240e+02
858             	3.19081192e+02
859             	3.19081084e+02
860             	3.19080987e+02
861             	3.19080908e+02
862             	3.19080822e+02
863             	3.19080791e+02
864             	3.19080771e+02
865             	3.19080767e+02
866             	3.19080784e+02
867             	3.19080809e+02
868             	3.19080828e+02
869             	3.19080851e+02
870             	3.19080883e+02
871             	3.19080918e+02
872             	3.19080952e+02
873             	3.19081055e+02
874             	3.19081174e+02
875             	3.19081224e+02
876             	3.19081340e+02
877             	3.19081600e+02
878             	3.19081874e+02
879             	3.19081960e+02
880             	3.19081905e+02
881             	3.19081972e+02
882             	3.19082164e+02
883             	3.19082298e+02
884             	3.19082278e+02
885             	3.19082202e+02
886             	3.19082201e+02
887             	3.19082273e+02
888             	3.19082314e+02
889             	3.19082261e+02
890             	3.19082149e+02
891             	3.19082069e+02
892             	3.19082028e+02
893             	3.19081990e+02
894             	3.19081927e+02
895             	3.19081857e+02
896             	3.19081801e+02
897             	3.19081769e+02
898             	3.19081755e+02
899             	3.19081769e+02
900             	3.19081816e+02
901             	3.19081887e+02
902             	3.19081894e+02
903             	3.19081892e+02
904             	3.19081877e+02
905             	3.19081902e+02
906             	3.19081904e+02
907             	3.19081900e+02
908             	3.19081838e+02
909             	3.19081749e+02
910             	3.19081713e+02
911             	3.19081721e+02
912             	3.19081761e+02
913             	3.19081807e+02
914             	3.19081863e+02
915             	3.19081931e+02
916             	3.19082014e+02
917             	3.19082096e+02
918             	3.19082163e+02
919             	3.19082270e+02
920             	3.19082375e+02
921             	3.19082474e+02
922             	3.19082554e+02
923             	3.19082634e+02
924             	3.19082727e+02
925             	3.19082821e+02
926             	3.19082893e+02
927             	3.19082948e+02
928             	3.19083004e+02
929             	3.19083062e+02
930             	3.19083113e+02
931             	3.19083151e+02
932             	3.19083181e+02
933             	3.19083211e+02