# Region        : cellZone component_0
# Cells         : 89
# Volume        : 1.78828356e-01
# Time          	volAverage(T)
1               	3.00274843e+02
2               	3.00545721e+02
3               	3.00799053e+02
4               	3.01040672e+02
5               	3.01275693e+02
6               	3.01505803e+02
7               	3.01732056e+02
8               	3.01955279e+02
9               	3.02176095e+02
10              	3.02395932e+02
11              	3.02614588e+02
12              	3.02831417e+02
13              	3.03045954e+02
14              	3.03258151e+02
15              	3.03467754e+02
16              	3.03675004e+02
17              	3.03879000e+02
18              	3.04079229e+02
19              	3.04275309e+02
20              	3.04467302e+02
21              	3.04655561e+02
22              	3.04841124e+02
23              	3.05024342e+02
24              	3.05205198e+02
25              	3.05382558e+02
26              	3.05556115e+02
27              	3.05725341e+02
28              	3.05889845e+02
29              	3.06048716e+02
30              	3.06201955e+02
31              	3.06350177e+02
32              	3.06493365e+02
33              	3.06631281e+02
34              	3.06764352e+02
35              	3.06893294e+02
36              	3.07017993e+02
37              	3.07138534e+02
38              	3.07254357e+02
39              	3.07365907e+02
40              	3.07472207e+02
41              	3.07574255e+02
42              	3.07673273e+02
43              	3.07768493e+02
44              	3.07859579e+02
45              	3.07946440e+02
46              	3.08030463e+02
47              	3.08111202e+02
48              	3.08189032e+02
49              	3.08263695e+02
50              	3.08334218e+02
51              	3.08402309e+02
52              	3.08466246e+02
53              	3.08529789e+02
54              	3.08592145e+02
55              	3.08652339e+02
56              	3.08710027e+02
57              	3.08765547e+02
58              	3.08818089e+02
59              	3.08869687e+02
60              	3.08918664e+02
61              	3.08966976e+02
62              	3.09013375e+02
63              	3.09056197e+02
64              	3.09098780e+02
65              	3.09142051e+02
66              	3.09183373e+02
67              	3.09223488e+02
68              	3.09264015e+02
69              	3.09303489e+02
70              	3.09341024e+02
71              	3.09376291e+02
72              	3.09410381e+02
73              	3.09442572e+02
74              	3.09473061e+02
75              	3.09502958e+02
76              	3.09533571e+02
77              	3.09564657e+02
78              	3.09594722e+02
79              	3.09625635e+02
80              	3.09657208e+02
81              	3.09687584e+02
82              	3.09717462e+02
83              	3.09745243e+02
84              	3.09770017e+02
85              	3.09792882e+02
86              	3.09813158e+02
87              	3.09831361e+02
88              	3.09848018e+02
89              	3.09865619e+02
90              	3.09885533e+02
91              	3.09906711e+02
92              	3.09928990e+02
93              	3.09953171e+02
94              	3.09973650e+02
95              	3.09994325e+02
96              	3.10014533e+02
97              	3.10031872e+02
98              	3.10045580e+02
99              	3.10058216e+02
100             	3.10068636e+02
101             	3.10077705e+02
102             	3.10086342e+02
103             	3.10098318e+02
104             	3.10112362e+02
105             	3.10125245e+02
106             	3.10137702e+02
107             	3.10152916e+02
108             	3.10168734e+02
109             	3.10184389e+02
110             	3.10196389e+02
111             	3.10207694e+02
112             	3.10217312e+02
113             	3.10225534e+02
114             	3.10234179e+02
115             	3.10241730e+02
116             	3.10248961e+02
117             	3.10257214e+02
118             	3.10265823e+02
119             	3.10275703e+02
120             	3.10285650e+02
121             	3.10295692e+02
122             	3.10306280e+02
123             	3.10316438e+02
124             	3.10326178e+02
125             	3.10335164e+02
126             	3.10343318e+02
127             	3.10350916e+02
128             	3.10358014e+02
129             	3.10364805e+02
130             	3.10371181e+02
131             	3.10377292e+02
132             	3.10383887e+02
133             	3.10390176e+02
134             	3.10396347e+02
135             	3.10402307e+02
136             	3.10408211e+02
137             	3.10414087e+02
138             	3.10419955e+02
139             	3.10425833e+02
140             	3.10431270e+02
141             	3.10436497e+02
142             	3.10441764e+02
143             	3.10446786e+02
144             	3.10451423e+02
145             	3.10456095e+02
146             	3.10460422e+02
147             	3.10464652e+02
148             	3.10468981e+02
149             	3.10473366e+02
150             	3.10477762e+02
151             	3.10482130e+02
152             	3.10486617e+02
153             	3.10490952e+02
154             	3.10495150e+02
155             	3.10499250e+02
156             	3.10503430e+02
157             	3.10507664e+02
158             	3.10511903e+02
159             	3.10516106e+02
160             	3.10520315e+02
161             	3.10524296e+02
162             	3.10528084e+02
163             	3.10531854e+02
164             	3.10535390e+02
165             	3.10538792e+02
166             	3.10541904e+02
167             	3.10544963e+02
168             	3.10547928e+02
169             	3.10550867e+02
170             	3.10553742e+02
171             	3.10556637e+02
172             	3.10559549e+02
173             	3.10562507e+02
174             	3.10565467e+02
175             	3.10568424e+02
176             	3.10571258e+02
177             	3.10574040e+02
178             	3.10576707e+02
179             	3.10579220e+02
180             	3.10581604e+02
181             	3.10583948e+02
182             	3.10586181e+02
183             	3.10588364e+02
184             	3.10590510e+02
185             	3.10592731e+02
186             	3.10594929e+02
187             	3.10597106e+02
188             	3.10599272e+02
189             	3.10601434e+02
190             	3.10603578e+02
191             	3.10605594e+02
192             	3.10607532e+02
193             	3.10609336e+02
194             	3.10611069e+02
195             	3.10612668e+02
196             	3.10614204e+02
197             	3.10615666e+02
198             	3.10617189e+02
199             	3.10618682e+02
200             	3.10620177e+02
201             	3.10621743e+02
202             	3.10623459e+02
203             	3.10625111e+02
204             	3.10626779e+02
205             	3.10628340e+02
206             	3.10629759e+02
207             	3.10631174e+02
208             	3.10632537e+02
209             	3.10633718e+02
210             	3.10634760e+02
211             	3.10635778e+02
212             	3.10636762e+02
213             	3.10637745e+02
214             	3.10638797e+02
215             	3.10639940e+02
216             	3.10641078e+02
217             	3.10642160e+02
218             	3.10643159e+02
219             	3.10644103e+02
220             	3.10645075e+02
221             	3.10645932e+02
222             	3.10646691e+02
223             	3.10647458e+02
224             	3.10648249e+02
225             	3.10649003e+02
226             	3.10649758e+02
227             	3.10650516e+02
228             	3.10651370e+02
229             	3.10652225e+02
230             	3.10652993e+02
231             	3.10653684e+02
232             	3.10654371e+02
233             	3.10654978e+02
234             	3.10655496e+02
235             	3.10655943e+02
236             	3.10656425e+02
237             	3.10656892e+02
238             	3.10657380e+02
239             	3.10657831e+02
240             	3.10658374e+02
241             	3.10658910e+02
242             	3.10659417e+02
243             	3.10659885e+02
244             	3.10660418e+02
245             	3.10660912e+02
246             	3.10661323e+02
247             	3.10661652e+02
248             	3.10662055e+02
249             	3.10662398e+02
250             	3.10662682e+02
251             	3.10662940e+02
252             	3.10663259e+02
253             	3.10663564e+02
254             	3.10663827e+02
255             	3.10664063e+02
256             	3.10664365e+02
257             	3.10664641e+02
258             	3.10664882e+02
259             	3.10665082e+02
260             	3.10665331e+02
261             	3.10665556e+02
262             	3.10665731e+02
263             	3.10665863e+02
264             	3.10666055e+02
265             	3.10666233e+02
266             	3.10666368e+02
267             	3.10666472e+02
268             	3.10666641e+02
269             	3.10666800e+02
270             	3.10666933e+02
271             	3.10667040e+02
272             	3.10667204e+02
273             	3.10667367e+02
274             	3.10667493e+02
275             	3.10667579e+02
276             	3.10667724e+02
277             	3.10667842e+02
278             	3.10667903e+02
279             	3.10667914e+02
280             	3.10668004e+02
281             	3.10668105e+02
282             	3.10668155e+02
283             	3.10668174e+02
284             	3.10668263e+02
285             	3.10668366e+02
286             	3.10668442e+02
287             	3.10668464e+02
288             	3.10668540e+02
289             	3.10668601e+02
290             	3.10668611e+02
291             	3.10668562e+02
292             	3.10668574e+02
293             	3.10668566e+02
294             	3.10668517e+02
295             	3.10668441e+02
296             	3.10668436e+02
297             	3.10668432e+02
298             	3.10668399e+02
299             	3.10668344e+02
300             	3.10668368e+02
301             	3.10668381e+02
302             	3.10668361e+02
303             	3.10668312e+02
304             	3.10668336e+02
305             	3.10668347e+02
306             	3.10668312e+02
307             	3.10668239e+02
308             	3.10668233e+02
309             	3.10668215e+02
310             	3.10668156e+02
311             	3.10668062e+02
312             	3.10668031e+02
313             	3.10667989e+02
314             	3.10667911e+02
315             	3.10667802e+02
316             	3.10667767e+02
317             	3.10667737e+02
318             	3.10667677e+02
319             	3.10667594e+02
320             	3.10667592e+02
321             	3.10667587e+02
322             	3.10667547e+02
323             	3.10667467e+02
324             	3.10667451e+02
325             	3.10667421e+02
326             	3.10667340e+02
327             	3.10667219e+02
328             	3.10667170e+02
329             	3.10667103e+02
330             	3.10666997e+02
331             	3.10666868e+02
332             	3.10666815e+02
333             	3.10666764e+02
334             	3.10666688e+02
335             	3.10666575e+02
336             	3.10666532e+02
337             	3.10666486e+02
338             	3.10666401e+02
339             	3.10666281e+02
340             	3.10666236e+02
341             	3.10666188e+02
342             	3.10666098e+02
343             	3.10665984e+02
344             	3.10665948e+02
345             	3.10665895e+02
346             	3.10665804e+02
347             	3.10665688e+02
348             	3.10665640e+02
349             	3.10665574e+02
350             	3.10665464e+02
351             	3.10665337e+02
352             	3.10665285e+02
353             	3.10665223e+02
354             	3.10665134e+02
355             	3.10665015e+02
356             	3.10664976e+02
357             	3.10664928e+02
358             	3.10664853e+02
359             	3.10664747e+02
360             	3.10664703e+02
361             	3.10664651e+02
362             	3.10664563e+02
363             	3.10664440e+02
364             	3.10664385e+02
365             	3.10664323e+02
366             	3.10664228e+02
367             	3.10664106e+02
368             	3.10664049e+02
369             	3.10663985e+02
370             	3.10663887e+02
371             	3.10663761e+02
372             	3.10663703e+02
373             	3.10663644e+02
374             	3.10663542e+02
375             	3.10663411e+02
376             	3.10663356e+02
377             	3.10663298e+02
378             	3.10663206e+02
379             	3.10663090e+02
380             	3.10663037e+02
381             	3.10662983e+02
382             	3.10662895e+02
383             	3.10662777e+02
384             	3.10662726e+02
385             	3.10662667e+02
386             	3.10662572e+02
387             	3.10662445e+02
388             	3.10662396e+02
389             	3.10662339e+02
390             	3.10662249e+02
391             	3.10662135e+02
392             	3.10662095e+02
393             	3.10662052e+02
394             	3.10661982e+02
395             	3.10661886e+02
396             	3.10661861e+02
397             	3.10661828e+02
398             	3.10661756e+02
399             	3.10661652e+02
400             	3.10661619e+02
401             	3.10661574e+02
402             	3.10661492e+02
403             	3.10661379e+02
404             	3.10661335e+02
405             	3.10661286e+02
406             	3.10661205e+02
407             	3.10661094e+02
408             	3.10661053e+02
409             	3.10661007e+02
410             	3.10660929e+02
411             	3.10660823e+02
412             	3.10660787e+02
413             	3.10660748e+02
414             	3.10660677e+02
415             	3.10660578e+02
416             	3.10660554e+02
417             	3.10660523e+02
418             	3.10660458e+02
419             	3.10660370e+02
420             	3.10660354e+02
421             	3.10660327e+02
422             	3.10660262e+02
423             	3.10660167e+02
424             	3.10660142e+02
425             	3.10660108e+02
426             	3.10660037e+02
427             	3.10659938e+02
428             	3.10659907e+02
429             	3.10659872e+02
430             	3.10659807e+02
431             	3.10659715e+02
432             	3.10659696e+02
433             	3.10659668e+02
434             	3.10659609e+02
435             	3.10659526e+02
436             	3.10659508e+02
437             	3.10659484e+02
438             	3.10659425e+02
439             	3.10659339e+02
440             	3.10659328e+02
441             	3.10659310e+02
442             	3.10659257e+02
443             	3.10659181e+02
444             	3.10659176e+02
445             	3.10659164e+02
446             	3.10659113e+02
447             	3.10659032e+02
448             	3.10659023e+02
449             	3.10659004e+02
450             	3.10658947e+02
451             	3.10658857e+02
452             	3.10658834e+02
453             	3.10658805e+02
454             	3.10658744e+02
455             	3.10658656e+02
456             	3.10658641e+02
457             	3.10658623e+02
458             	3.10658576e+02
459             	3.10658503e+02
460             	3.10658497e+02
461             	3.10658489e+02
462             	3.10658446e+02
463             	3.10658374e+02
464             	3.10658371e+02
465             	3.10658359e+02
466             	3.10658313e+02
467             	3.10658237e+02
468             	3.10658231e+02
469             	3.10658216e+02
470             	3.10658165e+02
471             	3.10658083e+02
472             	3.10658073e+02
473             	3.10658056e+02
474             	3.10658002e+02
475             	3.10657922e+02
476             	3.10657911e+02
477             	3.10657896e+02
478             	3.10657852e+02
479             	3.10657782e+02
480             	3.10657783e+02
481             	3.10657782e+02
482             	3.10657748e+02
483             	3.10657687e+02
484             	3.10657689e+02
485             	3.10657686e+02
486             	3.10657646e+02
487             	3.10657574e+02
488             	3.10657569e+02
489             	3.10657556e+02
490             	3.10657507e+02
491             	3.10657429e+02
492             	3.10657421e+02
493             	3.10657405e+02
494             	3.10657352e+02
495             	3.10657274e+02
496             	3.10657266e+02
497             	3.10657252e+02
498             	3.10657204e+02
499             	3.10657132e+02
500             	3.10657127e+02
501             	3.10657122e+02
502             	3.10657087e+02
503             	3.10657028e+02
504             	3.10657035e+02
505             	3.10657040e+02
506             	3.10657014e+02
507             	3.10656953e+02
508             	3.10656962e+02
509             	3.10656962e+02
510             	3.10656924e+02
511             	3.10656854e+02
512             	3.10656856e+02
513             	3.10656849e+02
514             	3.10656808e+02
515             	3.10656739e+02
516             	3.10656742e+02
517             	3.10656737e+02
518             	3.10656699e+02
519             	3.10656631e+02
520             	3.10656636e+02
521             	3.10656634e+02
522             	3.10656598e+02
523             	3.10656533e+02
524             	3.10656534e+02
525             	3.10656531e+02
526             	3.10656498e+02
527             	3.10656436e+02
528             	3.10656444e+02
529             	3.10656448e+02
530             	3.10656418e+02
531             	3.10656360e+02
532             	3.10656371e+02
533             	3.10656376e+02
534             	3.10656344e+02
535             	3.10656285e+02
536             	3.10656296e+02
537             	3.10656300e+02
538             	3.10656270e+02
539             	3.10656212e+02
540             	3.10656222e+02
541             	3.10656225e+02
542             	3.10656187e+02
543             	3.10656121e+02
544             	3.10656126e+02
545             	3.10656124e+02
546             	3.10656084e+02
547             	3.10656017e+02
548             	3.10656018e+02
549             	3.10656016e+02
550             	3.10655985e+02
551             	3.10655929e+02
552             	3.10655941e+02
553             	3.10655949e+02
554             	3.10655925e+02
555             	3.10655871e+02
556             	3.10655884e+02
557             	3.10655890e+02
558             	3.10655859e+02
559             	3.10655798e+02
560             	3.10655806e+02
561             	3.10655807e+02
562             	3.10655775e+02
563             	3.10655715e+02
564             	3.10655727e+02
565             	3.10655730e+02
566             	3.10655697e+02
567             	3.10655635e+02
568             	3.10655644e+02
569             	3.10655646e+02
570             	3.10655612e+02
571             	3.10655550e+02
572             	3.10655553e+02
573             	3.10655551e+02
574             	3.10655519e+02
575             	3.10655459e+02
576             	3.10655467e+02
577             	3.10655470e+02
578             	3.10655444e+02
579             	3.10655389e+02
580             	3.10655402e+02
581             	3.10655409e+02
582             	3.10655381e+02
583             	3.10655324e+02
584             	3.10655336e+02
585             	3.10655340e+02
586             	3.10655311e+02
587             	3.10655254e+02
588             	3.10655266e+02
589             	3.10655273e+02
590             	3.10655242e+02
591             	3.10655183e+02
592             	3.10655196e+02
593             	3.10655202e+02
594             	3.10655172e+02
595             	3.10655113e+02
596             	3.10655121e+02
597             	3.10655125e+02
598             	3.10655096e+02
599             	3.10655039e+02
600             	3.10655049e+02
601             	3.10655054e+02
602             	3.10655024e+02
603             	3.10654965e+02
604             	3.10654971e+02
605             	3.10654976e+02
606             	3.10654947e+02
607             	3.10654889e+02
608             	3.10654903e+02
609             	3.10654912e+02
610             	3.10654892e+02
611             	3.10654842e+02
612             	3.10654865e+02
613             	3.10654881e+02
614             	3.10654860e+02
615             	3.10654808e+02
616             	3.10654825e+02
617             	3.10654833e+02
618             	3.10654804e+02
619             	3.10654748e+02
620             	3.10654757e+02
621             	3.10654760e+02
622             	3.10654733e+02
623             	3.10654679e+02
624             	3.10654693e+02
625             	3.10654704e+02
626             	3.10654684e+02
627             	3.10654634e+02
628             	3.10654650e+02
629             	3.10654660e+02
630             	3.10654634e+02
631             	3.10654580e+02
632             	3.10654593e+02
633             	3.10654600e+02
634             	3.10654574e+02
635             	3.10654520e+02
636             	3.10654537e+02
637             	3.10654546e+02
638             	3.10654518e+02
639             	3.10654465e+02
640             	3.10654483e+02
641             	3.10654493e+02
642             	3.10654467e+02
643             	3.10654416e+02
644             	3.10654433e+02
645             	3.10654445e+02
646             	3.10654428e+02
647             	3.10654382e+02
648             	3.10654405e+02
649             	3.10654424e+02
650             	3.10654410e+02
651             	3.10654365e+02
652             	3.10654386e+02
653             	3.10654399e+02
654             	3.10654377e+02
655             	3.10654325e+02
656             	3.10654342e+02
657             	3.10654351e+02
658             	3.10654326e+02
659             	3.10654276e+02
660             	3.10654294e+02
661             	3.10654306e+02
662             	3.10654280e+02
663             	3.10654226e+02
664             	3.10654243e+02
665             	3.10654253e+02
666             	3.10654229e+02
667             	3.10654177e+02
668             	3.10654191e+02
669             	3.10654203e+02
670             	3.10654183e+02
671             	3.10654139e+02
672             	3.10654165e+02
673             	3.10654187e+02
674             	3.10654180e+02
675             	3.10654145e+02
676             	3.10654175e+02
677             	3.10654200e+02
678             	3.10654190e+02
679             	3.10654150e+02
680             	3.10654179e+02
681             	3.10654202e+02
682             	3.10654189e+02
683             	3.10654147e+02
684             	3.10654173e+02
685             	3.10654189e+02
686             	3.10654169e+02
687             	3.10654115e+02
688             	3.10654130e+02
689             	3.10654141e+02
690             	3.10654114e+02
691             	3.10654061e+02
692             	3.10654075e+02
693             	3.10654086e+02
694             	3.10654070e+02
695             	3.10654031e+02
696             	3.10654063e+02
697             	3.10654093e+02
698             	3.10654091e+02
699             	3.10654057e+02
700             	3.10654090e+02
701             	3.10654113e+02
702             	3.10654097e+02
703             	3.10654051e+02
704             	3.10654067e+02
705             	3.10654080e+02
706             	3.10654055e+02
707             	3.10654012e+02
708             	3.10654039e+02
709             	3.10654055e+02
710             	3.10654043e+02
711             	3.10654003e+02
712             	3.10654034e+02
713             	3.10654059e+02
714             	3.10654047e+02
715             	3.10654012e+02
716             	3.10654033e+02
717             	3.10654049e+02
718             	3.10654038e+02
719             	3.10653998e+02
720             	3.10654023e+02
721             	3.10654043e+02
722             	3.10654034e+02
723             	3.10653997e+02
724             	3.10654022e+02
725             	3.10654041e+02
726             	3.10654027e+02
727             	3.10653984e+02
728             	3.10654005e+02
729             	3.10654019e+02
730             	3.10654004e+02
731             	3.10653957e+02
732             	3.10653977e+02
733             	3.10653988e+02
734             	3.10653962e+02
735             	3.10653910e+02
736             	3.10653927e+02
737             	3.10653936e+02
738             	3.10653913e+02
739             	3.10653860e+02
740             	3.10653875e+02
741             	3.10653887e+02
742             	3.10653873e+02
743             	3.10653831e+02
744             	3.10653855e+02
745             	3.10653876e+02
746             	3.10653870e+02
747             	3.10653833e+02
748             	3.10653863e+02
749             	3.10653884e+02
750             	3.10653872e+02
751             	3.10653832e+02
752             	3.10653860e+02
753             	3.10653876e+02
754             	3.10653861e+02
755             	3.10653818e+02
756             	3.10653840e+02
757             	3.10653856e+02
758             	3.10653834e+02
759             	3.10653782e+02
760             	3.10653798e+02
761             	3.10653804e+02
762             	3.10653777e+02
763             	3.10653717e+02
764             	3.10653722e+02
765             	3.10653722e+02
766             	3.10653696e+02
767             	3.10653637e+02
768             	3.10653649e+02
769             	3.10653661e+02
770             	3.10653647e+02
771             	3.10653605e+02
772             	3.10653635e+02
773             	3.10653662e+02
774             	3.10653657e+02
775             	3.10653620e+02
776             	3.10653644e+02
777             	3.10653666e+02
778             	3.10653646e+02
779             	3.10653587e+02
780             	3.10653596e+02
781             	3.10653593e+02
782             	3.10653556e+02
783             	3.10653486e+02
784             	3.10653497e+02
785             	3.10653502e+02
786             	3.10653481e+02
787             	3.10653440e+02
788             	3.10653462e+02
789             	3.10653487e+02
790             	3.10653483e+02
791             	3.10653450e+02
792             	3.10653482e+02
793             	3.10653507e+02
794             	3.10653488e+02
795             	3.10653440e+02
796             	3.10653463e+02
797             	3.10653473e+02
798             	3.10653451e+02
799             	3.10653402e+02
800             	3.10653420e+02
801             	3.10653439e+02
802             	3.10653430e+02
803             	3.10653399e+02
804             	3.10653438e+02
805             	3.10653465e+02
806             	3.10653453e+02
807             	3.10653413e+02
808             	3.10653438e+02
809             	3.10653451e+02
810             	3.10653427e+02
811             	3.10653380e+02
812             	3.10653396e+02
813             	3.10653406e+02
814             	3.10653389e+02
815             	3.10653352e+02
816             	3.10653381e+02
817             	3.10653411e+02
818             	3.10653403e+02
819             	3.10653366e+02
820             	3.10653391e+02
821             	3.10653407e+02
822             	3.10653388e+02
823             	3.10653334e+02
824             	3.10653346e+02
825             	3.10653357e+02
826             	3.10653341e+02
827             	3.10653304e+02
828             	3.10653342e+02
829             	3.10653380e+02
830             	3.10653382e+02
831             	3.10653357e+02
832             	3.10653407e+02
833             	3.10653443e+02
834             	3.10653441e+02
835             	3.10653417e+02
836             	3.10653446e+02
837             	3.10653466e+02
838             	3.10653450e+02
839             	3.10653407e+02
840             	3.10653432e+02
841             	3.10653448e+02
842             	3.10653436e+02
843             	3.10653394e+02
844             	3.10653416e+02
845             	3.10653434e+02
846             	3.10653422e+02
847             	3.10653385e+02
848             	3.10653412e+02
849             	3.10653438e+02
850             	3.10653432e+02
851             	3.10653403e+02
852             	3.10653445e+02
853             	3.10653480e+02
854             	3.10653478e+02
855             	3.10653449e+02
856             	3.10653491e+02
857             	3.10653526e+02
858             	3.10653521e+02
859             	3.10653491e+02
860             	3.10653526e+02
861             	3.10653553e+02
862             	3.10653547e+02
863             	3.10653510e+02
864             	3.10653539e+02
865             	3.10653561e+02
866             	3.10653547e+02
867             	3.10653502e+02
868             	3.10653521e+02
869             	3.10653535e+02
870             	3.10653520e+02
871             	3.10653485e+02
872             	3.10653518e+02
873             	3.10653543e+02
874             	3.10653548e+02
875             	3.10653527e+02
876             	3.10653568e+02
877             	3.10653606e+02
878             	3.10653606e+02
879             	3.10653574e+02
880             	3.10653606e+02
881             	3.10653623e+02
882             	3.10653606e+02
883             	3.10653566e+02
884             	3.10653585e+02
885             	3.10653599e+02
886             	3.10653588e+02
887             	3.10653550e+02
888             	3.10653576e+02
889             	3.10653599e+02
890             	3.10653596e+02
891             	3.10653571e+02
892             	3.10653601e+02
893             	3.10653624e+02
894             	3.10653617e+02
895             	3.10653586e+02
896             	3.10653614e+02
897             	3.10653634e+02
898             	3.10653626e+02
899             	3.10653597e+02
900             	3.10653626e+02
901             	3.10653646e+02
902             	3.10653636e+02
903             	3.10653603e+02
904             	3.10653628e+02
905             	3.10653644e+02
906             	3.10653630e+02
907             	3.10653594e+02
908             	3.10653616e+02
909             	3.10653630e+02
910             	3.10653618e+02
911             	3.10653585e+02
912             	3.10653608e+02
913             	3.10653629e+02
914             	3.10653621e+02
915             	3.10653591e+02
916             	3.10653621e+02
917             	3.10653644e+02
918             	3.10653639e+02
919             	3.10653611e+02
920             	3.10653637e+02
921             	3.10653660e+02
922             	3.10653654e+02
923             	3.10653624e+02
924             	3.10653649e+02
925             	3.10653668e+02
926             	3.10653653e+02
927             	3.10653613e+02
928             	3.10653633e+02
929             	3.10653647e+02
930             	3.10653632e+02
931             	3.10653597e+02
932             	3.10653620e+02
933             	3.10653641e+02