# Region        : cellZone component_4
# Cells         : 53
# Volume        : 8.06093807e-02
# Time          	volAverage(T)
1               	3.01177742e+02
2               	3.02325956e+02
3               	3.03357419e+02
4               	3.04334592e+02
5               	3.05294677e+02
6               	3.06248499e+02
7               	3.07196682e+02
8               	3.08142221e+02
9               	3.09086254e+02
10              	3.10024498e+02
11              	3.10943579e+02
12              	3.11844938e+02
13              	3.12729581e+02
14              	3.13596935e+02
15              	3.14441782e+02
16              	3.15258918e+02
17              	3.16064631e+02
18              	3.16854406e+02
19              	3.17654101e+02
20              	3.18453424e+02
21              	3.19254122e+02
22              	3.20048783e+02
23              	3.20846375e+02
24              	3.21642118e+02
25              	3.22431051e+02
26              	3.23210757e+02
27              	3.23964075e+02
28              	3.24715989e+02
29              	3.25403705e+02
30              	3.26030025e+02
31              	3.26625722e+02
32              	3.27203198e+02
33              	3.27748959e+02
34              	3.28250655e+02
35              	3.28763554e+02
36              	3.29323312e+02
37              	3.29880706e+02
38              	3.30447198e+02
39              	3.31031565e+02
40              	3.31615763e+02
41              	3.32203805e+02
42              	3.32799193e+02
43              	3.33370455e+02
44              	3.33915961e+02
45              	3.34455214e+02
46              	3.34950801e+02
47              	3.35485606e+02
48              	3.36015678e+02
49              	3.36534681e+02
50              	3.37038891e+02
51              	3.37534543e+02
52              	3.38018720e+02
53              	3.38489846e+02
54              	3.38984865e+02
55              	3.39469119e+02
56              	3.39931179e+02
57              	3.40404955e+02
58              	3.40853473e+02
59              	3.41273586e+02
60              	3.41687799e+02
61              	3.42109937e+02
62              	3.42506337e+02
63              	3.42893265e+02
64              	3.43246809e+02
65              	3.43619640e+02
66              	3.43992082e+02
67              	3.44336144e+02
68              	3.44633765e+02
69              	3.44921153e+02
70              	3.45227138e+02
71              	3.45519221e+02
72              	3.45747747e+02
73              	3.45979630e+02
74              	3.46195354e+02
75              	3.46416557e+02
76              	3.46646503e+02
77              	3.46885290e+02
78              	3.47129124e+02
79              	3.47353931e+02
80              	3.47600073e+02
81              	3.47856071e+02
82              	3.48116107e+02
83              	3.48370721e+02
84              	3.48646149e+02
85              	3.48915689e+02
86              	3.49183357e+02
87              	3.49483192e+02
88              	3.49792811e+02
89              	3.50090851e+02
90              	3.50369683e+02
91              	3.50642134e+02
92              	3.50918151e+02
93              	3.51196917e+02
94              	3.51481511e+02
95              	3.51752850e+02
96              	3.52014895e+02
97              	3.52277569e+02
98              	3.52546119e+02
99              	3.52814813e+02
100             	3.53082117e+02
101             	3.53339196e+02
102             	3.53586784e+02
103             	3.53829762e+02
104             	3.54083484e+02
105             	3.54334889e+02
106             	3.54595741e+02
107             	3.54860212e+02
108             	3.55076219e+02
109             	3.55261433e+02
110             	3.55411091e+02
111             	3.55596073e+02
112             	3.55786599e+02
113             	3.55959129e+02
114             	3.56120243e+02
115             	3.56273850e+02
116             	3.56429505e+02
117             	3.56579945e+02
118             	3.56740197e+02
119             	3.56908905e+02
120             	3.57077758e+02
121             	3.57229475e+02
122             	3.57393031e+02
123             	3.57558830e+02
124             	3.57764634e+02
125             	3.57965304e+02
126             	3.58160203e+02
127             	3.58351129e+02
128             	3.58552211e+02
129             	3.58760882e+02
130             	3.58982139e+02
131             	3.59214259e+02
132             	3.59456840e+02
133             	3.59708578e+02
134             	3.59951816e+02
135             	3.60186045e+02
136             	3.60402834e+02
137             	3.60619009e+02
138             	3.60817349e+02
139             	3.60994036e+02
140             	3.61161435e+02
141             	3.61326953e+02
142             	3.61495882e+02
143             	3.61638563e+02
144             	3.61805299e+02
145             	3.61996274e+02
146             	3.62199851e+02
147             	3.62398607e+02
148             	3.62603945e+02
149             	3.62793810e+02
150             	3.62968763e+02
151             	3.63143173e+02
152             	3.63314628e+02
153             	3.63478891e+02
154             	3.63640072e+02
155             	3.63801086e+02
156             	3.63964711e+02
157             	3.64131642e+02
158             	3.64297484e+02
159             	3.64466084e+02
160             	3.64644458e+02
161             	3.64820482e+02
162             	3.64987230e+02
163             	3.65142068e+02
164             	3.65323074e+02
165             	3.65498241e+02
166             	3.65681967e+02
167             	3.65875054e+02
168             	3.66074901e+02
169             	3.66240094e+02
170             	3.66404092e+02
171             	3.66564246e+02
172             	3.66720729e+02
173             	3.66860425e+02
174             	3.66988833e+02
175             	3.67112017e+02
176             	3.67232161e+02
177             	3.67360063e+02
178             	3.67448085e+02
179             	3.67561595e+02
180             	3.67688799e+02
181             	3.67810190e+02
182             	3.67960660e+02
183             	3.68124031e+02
184             	3.68276317e+02
185             	3.68426842e+02
186             	3.68566746e+02
187             	3.68692122e+02
188             	3.68799366e+02
189             	3.68879875e+02
190             	3.68962216e+02
191             	3.69047230e+02
192             	3.69131347e+02
193             	3.69191740e+02
194             	3.69263804e+02
195             	3.69337571e+02
196             	3.69433805e+02
197             	3.69544843e+02
198             	3.69634446e+02
199             	3.69718047e+02
200             	3.69787366e+02
201             	3.69813169e+02
202             	3.69868809e+02
203             	3.69925992e+02
204             	3.69969621e+02
205             	3.70008794e+02
206             	3.70062683e+02
207             	3.70096180e+02
208             	3.70155127e+02
209             	3.70232685e+02
210             	3.70314493e+02
211             	3.70382003e+02
212             	3.70458671e+02
213             	3.70516513e+02
214             	3.70577811e+02
215             	3.70645715e+02
216             	3.70715197e+02
217             	3.70779995e+02
218             	3.70846625e+02
219             	3.70919164e+02
220             	3.70994435e+02
221             	3.71075347e+02
222             	3.71171650e+02
223             	3.71238682e+02
224             	3.71323319e+02
225             	3.71412475e+02
226             	3.71505631e+02
227             	3.71598459e+02
228             	3.71671903e+02
229             	3.71731799e+02
230             	3.71797513e+02
231             	3.71865446e+02
232             	3.71932863e+02
233             	3.72008335e+02
234             	3.72061666e+02
235             	3.72146886e+02
236             	3.72195486e+02
237             	3.72265628e+02
238             	3.72350063e+02
239             	3.72405129e+02
240             	3.72475934e+02
241             	3.72545209e+02
242             	3.72613712e+02
243             	3.72683515e+02
244             	3.72743057e+02
245             	3.72798657e+02
246             	3.72849511e+02
247             	3.72909253e+02
248             	3.72976375e+02
249             	3.73003570e+02
250             	3.73047463e+02
251             	3.73107978e+02
252             	3.73135706e+02
253             	3.73185434e+02
254             	3.73249951e+02
255             	3.73289073e+02
256             	3.73347750e+02
257             	3.73415582e+02
258             	3.73487198e+02
259             	3.73554760e+02
260             	3.73616716e+02
261             	3.73671720e+02
262             	3.73732402e+02
263             	3.73768841e+02
264             	3.73820072e+02
265             	3.73880520e+02
266             	3.73912692e+02
267             	3.73960049e+02
268             	3.74019807e+02
269             	3.74047116e+02
270             	3.74089152e+02
271             	3.74136545e+02
272             	3.74185699e+02
273             	3.74231716e+02
274             	3.74271741e+02
275             	3.74311622e+02
276             	3.74355773e+02
277             	3.74402973e+02
278             	3.74420329e+02
279             	3.74457105e+02
280             	3.74509807e+02
281             	3.74527287e+02
282             	3.74564460e+02
283             	3.74613798e+02
284             	3.74638398e+02
285             	3.74680611e+02
286             	3.74732350e+02
287             	3.74789848e+02
288             	3.74812413e+02
289             	3.74847200e+02
290             	3.74882559e+02
291             	3.74917520e+02
292             	3.74958810e+02
293             	3.74970282e+02
294             	3.74997409e+02
295             	3.75037653e+02
296             	3.75047655e+02
297             	3.75075975e+02
298             	3.75116083e+02
299             	3.75129807e+02
300             	3.75160574e+02
301             	3.75200171e+02
302             	3.75241310e+02
303             	3.75283378e+02
304             	3.75323824e+02
305             	3.75332981e+02
306             	3.75359937e+02
307             	3.75396042e+02
308             	3.75438262e+02
309             	3.75447674e+02
310             	3.75474171e+02
311             	3.75512345e+02
312             	3.75521329e+02
313             	3.75546903e+02
314             	3.75579985e+02
315             	3.75615835e+02
316             	3.75622766e+02
317             	3.75646438e+02
318             	3.75674924e+02
319             	3.75706548e+02
320             	3.75744168e+02
321             	3.75745694e+02
322             	3.75764754e+02
323             	3.75796504e+02
324             	3.75799625e+02
325             	3.75820659e+02
326             	3.75850551e+02
327             	3.75886655e+02
328             	3.75921498e+02
329             	3.75922381e+02
330             	3.75941520e+02
331             	3.75970936e+02
332             	3.76006642e+02
333             	3.76036760e+02
334             	3.76068002e+02
335             	3.76065114e+02
336             	3.76081430e+02
337             	3.76108326e+02
338             	3.76141246e+02
339             	3.76138905e+02
340             	3.76156243e+02
341             	3.76182785e+02
342             	3.76216448e+02
343             	3.76214921e+02
344             	3.76232015e+02
345             	3.76257153e+02
346             	3.76283092e+02
347             	3.76308214e+02
348             	3.76339198e+02
349             	3.76334674e+02
350             	3.76347577e+02
351             	3.76370556e+02
352             	3.76368608e+02
353             	3.76385490e+02
354             	3.76411472e+02
355             	3.76442314e+02
356             	3.76438029e+02
357             	3.76452259e+02
358             	3.76476138e+02
359             	3.76502675e+02
360             	3.76531706e+02
361             	3.76525265e+02
362             	3.76536278e+02
363             	3.76557588e+02
364             	3.76586949e+02
365             	3.76579947e+02
366             	3.76591302e+02
367             	3.76614157e+02
368             	3.76609775e+02
369             	3.76622455e+02
370             	3.76644800e+02
371             	3.76673360e+02
372             	3.76666170e+02
373             	3.76676751e+02
374             	3.76697023e+02
375             	3.76720333e+02
376             	3.76745852e+02
377             	3.76736298e+02
378             	3.76745142e+02
379             	3.76764361e+02
380             	3.76758206e+02
381             	3.76769565e+02
382             	3.76791369e+02
383             	3.76818067e+02
384             	3.76809428e+02
385             	3.76818913e+02
386             	3.76837746e+02
387             	3.76863076e+02
388             	3.76854855e+02
389             	3.76864136e+02
390             	3.76883338e+02
391             	3.76908778e+02
392             	3.76898122e+02
393             	3.76905723e+02
394             	3.76923276e+02
395             	3.76944783e+02
396             	3.76935262e+02
397             	3.76942983e+02
398             	3.76960405e+02
399             	3.76985261e+02
400             	3.76973594e+02
401             	3.76980098e+02
402             	3.76998020e+02
403             	3.76989183e+02
404             	3.76997348e+02
405             	3.77014836e+02
406             	3.77038439e+02
407             	3.77027992e+02
408             	3.77035125e+02
409             	3.77052095e+02
410             	3.77076486e+02
411             	3.77064324e+02
412             	3.77069998e+02
413             	3.77085554e+02
414             	3.77107973e+02
415             	3.77095383e+02
416             	3.77100955e+02
417             	3.77116445e+02
418             	3.77139665e+02
419             	3.77126772e+02
420             	3.77131844e+02
421             	3.77146811e+02
422             	3.77168583e+02
423             	3.77155224e+02
424             	3.77159781e+02
425             	3.77174145e+02
426             	3.77195831e+02
427             	3.77182332e+02
428             	3.77186792e+02
429             	3.77201601e+02
430             	3.77223730e+02
431             	3.77209755e+02
432             	3.77213887e+02
433             	3.77228093e+02
434             	3.77249920e+02
435             	3.77235623e+02
436             	3.77239315e+02
437             	3.77252675e+02
438             	3.77273452e+02
439             	3.77259116e+02
440             	3.77262681e+02
441             	3.77275921e+02
442             	3.77296662e+02
443             	3.77281732e+02
444             	3.77284822e+02
445             	3.77297821e+02
446             	3.77318454e+02
447             	3.77303062e+02
448             	3.77305716e+02
449             	3.77318290e+02
450             	3.77338290e+02
451             	3.77322965e+02
452             	3.77325715e+02
453             	3.77338413e+02
454             	3.77358874e+02
455             	3.77343212e+02
456             	3.77345649e+02
457             	3.77357945e+02
458             	3.77377926e+02
459             	3.77362102e+02
460             	3.77364374e+02
461             	3.77376443e+02
462             	3.77396006e+02
463             	3.77379939e+02
464             	3.77381985e+02
465             	3.77393631e+02
466             	3.77412916e+02
467             	3.77396587e+02
468             	3.77398423e+02
469             	3.77409991e+02
470             	3.77429134e+02
471             	3.77412511e+02
472             	3.77414130e+02
473             	3.77425513e+02
474             	3.77444701e+02
475             	3.77427924e+02
476             	3.77429438e+02
477             	3.77440696e+02
478             	3.77459349e+02
479             	3.77442519e+02
480             	3.77443970e+02
481             	3.77455078e+02
482             	3.77473605e+02
483             	3.77456540e+02
484             	3.77457786e+02
485             	3.77468726e+02
486             	3.77487237e+02
487             	3.77469932e+02
488             	3.77470985e+02
489             	3.77481772e+02
490             	3.77500113e+02
491             	3.77482617e+02
492             	3.77483508e+02
493             	3.77494119e+02
494             	3.77512235e+02
495             	3.77494584e+02
496             	3.77495335e+02
497             	3.77505713e+02
498             	3.77523592e+02
499             	3.77505817e+02
500             	3.77506449e+02
501             	3.77516719e+02
502             	3.77534485e+02
503             	3.77516535e+02
504             	3.77517048e+02
505             	3.77527303e+02
506             	3.77545244e+02
507             	3.77527120e+02
508             	3.77527501e+02
509             	3.77537627e+02
510             	3.77555317e+02
511             	3.77537117e+02
512             	3.77537410e+02
513             	3.77547421e+02
514             	3.77564956e+02
515             	3.77546625e+02
516             	3.77546806e+02
517             	3.77556714e+02
518             	3.77574236e+02
519             	3.77555736e+02
520             	3.77555766e+02
521             	3.77565490e+02
522             	3.77582780e+02
523             	3.77564168e+02
524             	3.77564095e+02
525             	3.77573747e+02
526             	3.77590959e+02
527             	3.77572219e+02
528             	3.77572037e+02
529             	3.77581615e+02
530             	3.77598825e+02
531             	3.77579989e+02
532             	3.77579730e+02
533             	3.77589298e+02
534             	3.77606460e+02
535             	3.77587525e+02
536             	3.77587184e+02
537             	3.77596622e+02
538             	3.77613693e+02
539             	3.77594676e+02
540             	3.77594243e+02
541             	3.77603570e+02
542             	3.77620553e+02
543             	3.77601417e+02
544             	3.77600875e+02
545             	3.77610113e+02
546             	3.77626985e+02
547             	3.77607745e+02
548             	3.77607123e+02
549             	3.77616313e+02
550             	3.77633099e+02
551             	3.77613778e+02
552             	3.77613086e+02
553             	3.77622212e+02
554             	3.77638933e+02
555             	3.77619545e+02
556             	3.77618791e+02
557             	3.77627911e+02
558             	3.77644539e+02
559             	3.77625069e+02
560             	3.77624247e+02
561             	3.77633277e+02
562             	3.77649863e+02
563             	3.77630341e+02
564             	3.77629460e+02
565             	3.77638400e+02
566             	3.77654914e+02
567             	3.77635312e+02
568             	3.77634348e+02
569             	3.77643175e+02
570             	3.77659608e+02
571             	3.77639921e+02
572             	3.77638874e+02
573             	3.77647697e+02
574             	3.77664041e+02
575             	3.77644285e+02
576             	3.77643188e+02
577             	3.77652008e+02
578             	3.77668303e+02
579             	3.77648503e+02
580             	3.77647381e+02
581             	3.77656145e+02
582             	3.77672428e+02
583             	3.77652604e+02
584             	3.77651436e+02
585             	3.77660160e+02
586             	3.77676378e+02
587             	3.77656486e+02
588             	3.77655252e+02
589             	3.77663882e+02
590             	3.77680037e+02
591             	3.77660080e+02
592             	3.77658780e+02
593             	3.77667373e+02
594             	3.77683458e+02
595             	3.77663436e+02
596             	3.77662083e+02
597             	3.77670658e+02
598             	3.77686699e+02
599             	3.77666640e+02
600             	3.77665267e+02
601             	3.77673809e+02
602             	3.77689841e+02
603             	3.77669769e+02
604             	3.77668360e+02
605             	3.77676850e+02
606             	3.77692843e+02
607             	3.77672718e+02
608             	3.77671258e+02
609             	3.77679699e+02
610             	3.77695645e+02
611             	3.77675478e+02
612             	3.77673991e+02
613             	3.77682442e+02
614             	3.77698341e+02
615             	3.77678138e+02
616             	3.77676610e+02
617             	3.77685049e+02
618             	3.77700865e+02
619             	3.77680592e+02
620             	3.77679018e+02
621             	3.77687573e+02
622             	3.77703342e+02
623             	3.77683033e+02
624             	3.77681419e+02
625             	3.77689914e+02
626             	3.77705658e+02
627             	3.77685313e+02
628             	3.77683657e+02
629             	3.77692105e+02
630             	3.77707814e+02
631             	3.77687438e+02
632             	3.77685551e+02
633             	3.77693848e+02
634             	3.77709603e+02
635             	3.77689248e+02
636             	3.77687367e+02
637             	3.77695641e+02
638             	3.77711382e+02
639             	3.77691013e+02
640             	3.77689108e+02
641             	3.77697354e+02
642             	3.77713079e+02
643             	3.77692695e+02
644             	3.77690773e+02
645             	3.77699004e+02
646             	3.77714713e+02
647             	3.77694316e+02
648             	3.77692389e+02
649             	3.77700595e+02
650             	3.77716299e+02
651             	3.77695895e+02
652             	3.77693951e+02
653             	3.77702132e+02
654             	3.77717819e+02
655             	3.77697395e+02
656             	3.77695430e+02
657             	3.77703594e+02
658             	3.77719257e+02
659             	3.77698812e+02
660             	3.77696822e+02
661             	3.77704960e+02
662             	3.77720611e+02
663             	3.77700153e+02
664             	3.77698158e+02
665             	3.77706289e+02
666             	3.77721925e+02
667             	3.77701454e+02
668             	3.77699438e+02
669             	3.77707537e+02
670             	3.77723165e+02
671             	3.77702684e+02
672             	3.77700657e+02
673             	3.77708740e+02
674             	3.77724349e+02
675             	3.77703849e+02
676             	3.77701799e+02
677             	3.77709863e+02
678             	3.77725459e+02
679             	3.77704946e+02
680             	3.77702890e+02
681             	3.77710941e+02
682             	3.77726522e+02
683             	3.77706000e+02
684             	3.77703932e+02
685             	3.77711969e+02
686             	3.77727542e+02
687             	3.77707012e+02
688             	3.77704935e+02
689             	3.77712956e+02
690             	3.77728520e+02
691             	3.77707980e+02
692             	3.77705893e+02
693             	3.77713908e+02
694             	3.77729459e+02
695             	3.77708907e+02
696             	3.77706809e+02
697             	3.77714805e+02
698             	3.77730348e+02
699             	3.77709789e+02
700             	3.77707679e+02
701             	3.77715669e+02
702             	3.77731202e+02
703             	3.77710632e+02
704             	3.77708512e+02
705             	3.77716483e+02
706             	3.77732002e+02
707             	3.77711416e+02
708             	3.77709281e+02
709             	3.77717235e+02
710             	3.77732741e+02
711             	3.77712143e+02
712             	3.77709995e+02
713             	3.77717924e+02
714             	3.77733424e+02
715             	3.77712821e+02
716             	3.77710665e+02
717             	3.77718606e+02
718             	3.77734096e+02
719             	3.77713483e+02
720             	3.77711316e+02
721             	3.77719247e+02
722             	3.77734731e+02
723             	3.77714113e+02
724             	3.77711943e+02
725             	3.77719876e+02
726             	3.77735356e+02
727             	3.77714735e+02
728             	3.77712563e+02
729             	3.77720482e+02
730             	3.77735957e+02
731             	3.77715329e+02
732             	3.77713147e+02
733             	3.77721052e+02
734             	3.77736516e+02
735             	3.77715874e+02
736             	3.77713679e+02
737             	3.77721570e+02
738             	3.77737024e+02
739             	3.77716374e+02
740             	3.77714171e+02
741             	3.77722059e+02
742             	3.77737503e+02
743             	3.77716847e+02
744             	3.77714637e+02
745             	3.77722523e+02
746             	3.77737969e+02
747             	3.77717312e+02
748             	3.77715107e+02
749             	3.77722988e+02
750             	3.77738429e+02
751             	3.77717769e+02
752             	3.77715560e+02
753             	3.77723441e+02
754             	3.77738878e+02
755             	3.77718213e+02
756             	3.77715997e+02
757             	3.77723871e+02
758             	3.77739305e+02
759             	3.77718635e+02
760             	3.77716414e+02
761             	3.77724274e+02
762             	3.77739695e+02
763             	3.77719012e+02
764             	3.77716774e+02
765             	3.77724617e+02
766             	3.77740028e+02
767             	3.77719327e+02
768             	3.77717079e+02
769             	3.77724922e+02
770             	3.77740320e+02
771             	3.77719623e+02
772             	3.77717378e+02
773             	3.77725216e+02
774             	3.77740625e+02
775             	3.77719935e+02
776             	3.77717694e+02
777             	3.77725533e+02
778             	3.77740940e+02
779             	3.77720243e+02
780             	3.77717999e+02
781             	3.77725841e+02
782             	3.77741235e+02
783             	3.77720526e+02
784             	3.77718274e+02
785             	3.77726104e+02
786             	3.77741502e+02
787             	3.77720795e+02
788             	3.77718540e+02
789             	3.77726368e+02
790             	3.77741761e+02
791             	3.77721051e+02
792             	3.77718794e+02
793             	3.77726620e+02
794             	3.77742009e+02
795             	3.77721293e+02
796             	3.77719030e+02
797             	3.77726853e+02
798             	3.77742231e+02
799             	3.77721499e+02
800             	3.77719238e+02
801             	3.77727063e+02
802             	3.77742434e+02
803             	3.77755039e+02
804             	3.77766092e+02
805             	3.77776358e+02
806             	3.77752363e+02
807             	3.77748356e+02
808             	3.77755027e+02
809             	3.77769639e+02
810             	3.77748213e+02
811             	3.77745392e+02
812             	3.77752735e+02
813             	3.77767667e+02
814             	3.77779873e+02
815             	3.77790541e+02
816             	3.77800437e+02
817             	3.77809885e+02
818             	3.77819030e+02
819             	3.77794037e+02
820             	3.77789203e+02
821             	3.77795154e+02
822             	3.77809115e+02
823             	3.77787049e+02
824             	3.77783643e+02
825             	3.77790433e+02
826             	3.77804820e+02
827             	3.77816503e+02
828             	3.77826652e+02
829             	3.77836039e+02
830             	3.77844987e+02
831             	3.77853642e+02
832             	3.77862078e+02
833             	3.77870339e+02
834             	3.77878449e+02
835             	3.77886427e+02
836             	3.77894281e+02
837             	3.77902018e+02
838             	3.77909644e+02
839             	3.77917163e+02
840             	3.77924579e+02
841             	3.77931894e+02
842             	3.77939109e+02
843             	3.77912167e+02
844             	3.77905584e+02
845             	3.77909886e+02
846             	3.77922236e+02
847             	3.77898559e+02
848             	3.77893642e+02
849             	3.77898956e+02
850             	3.77911905e+02
851             	3.77922180e+02
852             	3.77930928e+02
853             	3.77938926e+02
854             	3.77946503e+02
855             	3.77953806e+02
856             	3.77960910e+02
857             	3.77967857e+02
858             	3.77974673e+02
859             	3.77947370e+02
860             	3.77940400e+02
861             	3.77944326e+02
862             	3.77956294e+02
863             	3.77965770e+02
864             	3.77973800e+02
865             	3.77981151e+02
866             	3.77988129e+02
867             	3.77994866e+02
868             	3.78001427e+02
869             	3.78007847e+02
870             	3.77980081e+02
871             	3.77972705e+02
872             	3.77976247e+02
873             	3.77987791e+02
874             	3.77963285e+02
875             	3.77957564e+02
876             	3.77962100e+02
877             	3.77974278e+02
878             	3.77983782e+02
879             	3.77991762e+02
880             	3.77998994e+02
881             	3.78005809e+02
882             	3.78012354e+02
883             	3.78018707e+02
884             	3.77990960e+02
885             	3.77983533e+02
886             	3.77986987e+02
887             	3.77998485e+02
888             	3.77973898e+02
889             	3.77968108e+02
890             	3.77972578e+02
891             	3.77984663e+02
892             	3.77994071e+02
893             	3.78001955e+02
894             	3.78009090e+02
895             	3.78015807e+02
896             	3.78022253e+02
897             	3.78028506e+02
898             	3.78034610e+02
899             	3.78040591e+02
900             	3.78046468e+02
901             	3.78052251e+02
902             	3.78057946e+02
903             	3.78063558e+02
904             	3.78069091e+02
905             	3.78074547e+02
906             	3.78079929e+02
907             	3.78085239e+02
908             	3.78090478e+02
909             	3.78095647e+02
910             	3.78100747e+02
911             	3.78105780e+02
912             	3.78110747e+02
913             	3.78115648e+02
914             	3.78120485e+02
915             	3.78125258e+02
916             	3.78129970e+02
917             	3.78100534e+02
918             	3.78091571e+02
919             	3.78093530e+02
920             	3.78103628e+02
921             	3.78111247e+02
922             	3.78117431e+02
923             	3.78122945e+02
924             	3.78128107e+02
925             	3.78133048e+02
926             	3.78137836e+02
927             	3.78142507e+02
928             	3.78147084e+02
929             	3.78151580e+02
930             	3.78156004e+02
931             	3.78160362e+02
932             	3.78164657e+02
933             	3.78168893e+02