# Region        : cellZone component_3
# Cells         : 64
# Volume        : 1.01038904e-01
# Time          	volAverage(T)
1               	3.02737551e+02
2               	3.05426954e+02
3               	3.07734792e+02
4               	3.09837325e+02
5               	3.11873315e+02
6               	3.13877642e+02
7               	3.15858514e+02
8               	3.17852134e+02
9               	3.19698637e+02
10              	3.21429306e+02
11              	3.23071844e+02
12              	3.24728077e+02
13              	3.26329314e+02
14              	3.27936418e+02
15              	3.29426053e+02
16              	3.30834547e+02
17              	3.32157290e+02
18              	3.33465356e+02
19              	3.34762943e+02
20              	3.36061914e+02
21              	3.37403121e+02
22              	3.38620363e+02
23              	3.39781035e+02
24              	3.40871014e+02
25              	3.41998703e+02
26              	3.43123059e+02
27              	3.44268045e+02
28              	3.45239463e+02
29              	3.46166536e+02
30              	3.47027635e+02
31              	3.47724114e+02
32              	3.48207656e+02
33              	3.48386254e+02
34              	3.48559757e+02
35              	3.48900897e+02
36              	3.49375737e+02
37              	3.49893624e+02
38              	3.50410887e+02
39              	3.50874409e+02
40              	3.51277488e+02
41              	3.51785620e+02
42              	3.52354503e+02
43              	3.52821521e+02
44              	3.53229513e+02
45              	3.53587087e+02
46              	3.53982390e+02
47              	3.54367697e+02
48              	3.54744525e+02
49              	3.55106615e+02
50              	3.55454439e+02
51              	3.55800788e+02
52              	3.56152141e+02
53              	3.56495090e+02
54              	3.56826241e+02
55              	3.57144803e+02
56              	3.57444753e+02
57              	3.57720338e+02
58              	3.57985124e+02
59              	3.58234110e+02
60              	3.58479463e+02
61              	3.58720022e+02
62              	3.58962104e+02
63              	3.59206487e+02
64              	3.59443998e+02
65              	3.59671120e+02
66              	3.59888108e+02
67              	3.60100146e+02
68              	3.60304832e+02
69              	3.60503286e+02
70              	3.60695082e+02
71              	3.60882496e+02
72              	3.61070406e+02
73              	3.61256203e+02
74              	3.61433682e+02
75              	3.61596461e+02
76              	3.61767610e+02
77              	3.61942620e+02
78              	3.62109836e+02
79              	3.62277172e+02
80              	3.62437674e+02
81              	3.62577907e+02
82              	3.62716698e+02
83              	3.62860819e+02
84              	3.62997118e+02
85              	3.63127278e+02
86              	3.63252273e+02
87              	3.63368719e+02
88              	3.63641294e+02
89              	3.63912877e+02
90              	3.64144842e+02
91              	3.64366087e+02
92              	3.64569835e+02
93              	3.64758213e+02
94              	3.64937162e+02
95              	3.65111790e+02
96              	3.65286643e+02
97              	3.65466012e+02
98              	3.65646565e+02
99              	3.65823466e+02
100             	3.65997274e+02
101             	3.66172667e+02
102             	3.66343602e+02
103             	3.66510618e+02
104             	3.66671571e+02
105             	3.66824190e+02
106             	3.66979323e+02
107             	3.67125281e+02
108             	3.67269900e+02
109             	3.67404712e+02
110             	3.67528657e+02
111             	3.67644702e+02
112             	3.67743533e+02
113             	3.67835311e+02
114             	3.67924217e+02
115             	3.68010300e+02
116             	3.68089838e+02
117             	3.68163368e+02
118             	3.68235009e+02
119             	3.68311427e+02
120             	3.68387157e+02
121             	3.68461253e+02
122             	3.68541883e+02
123             	3.68624862e+02
124             	3.68695687e+02
125             	3.68762096e+02
126             	3.68826757e+02
127             	3.68888259e+02
128             	3.68947468e+02
129             	3.69011484e+02
130             	3.69083994e+02
131             	3.69146163e+02
132             	3.69195898e+02
133             	3.69246115e+02
134             	3.69288979e+02
135             	3.69329091e+02
136             	3.69362840e+02
137             	3.69394101e+02
138             	3.69422563e+02
139             	3.69443712e+02
140             	3.69465599e+02
141             	3.69491245e+02
142             	3.69519778e+02
143             	3.69553196e+02
144             	3.69585190e+02
145             	3.69623325e+02
146             	3.69666570e+02
147             	3.69713573e+02
148             	3.69762906e+02
149             	3.69816538e+02
150             	3.69867332e+02
151             	3.69919186e+02
152             	3.69973615e+02
153             	3.70030380e+02
154             	3.70088336e+02
155             	3.70148930e+02
156             	3.70204372e+02
157             	3.70261295e+02
158             	3.70315842e+02
159             	3.70362735e+02
160             	3.70403134e+02
161             	3.70435517e+02
162             	3.70461278e+02
163             	3.70485365e+02
164             	3.70510749e+02
165             	3.70538573e+02
166             	3.70566753e+02
167             	3.70592922e+02
168             	3.70616188e+02
169             	3.70637844e+02
170             	3.70654762e+02
171             	3.70669278e+02
172             	3.70683156e+02
173             	3.70699058e+02
174             	3.70718156e+02
175             	3.70742348e+02
176             	3.70766200e+02
177             	3.70791688e+02
178             	3.70822976e+02
179             	3.70853934e+02
180             	3.70885440e+02
181             	3.70917036e+02
182             	3.70950880e+02
183             	3.70979819e+02
184             	3.71006082e+02
185             	3.71030704e+02
186             	3.71051474e+02
187             	3.71069551e+02
188             	3.71087784e+02
189             	3.71105237e+02
190             	3.71123977e+02
191             	3.71144003e+02
192             	3.71163941e+02
193             	3.71181276e+02
194             	3.71194708e+02
195             	3.71204636e+02
196             	3.71212575e+02
197             	3.71219987e+02
198             	3.71227591e+02
199             	3.71236254e+02
200             	3.71246378e+02
201             	3.71258125e+02
202             	3.71276088e+02
203             	3.71302882e+02
204             	3.71328761e+02
205             	3.71352128e+02
206             	3.71373176e+02
207             	3.71394481e+02
208             	3.71415031e+02
209             	3.71435113e+02
210             	3.71458779e+02
211             	3.71485604e+02
212             	3.71516884e+02
213             	3.71550329e+02
214             	3.71585053e+02
215             	3.71616871e+02
216             	3.71643733e+02
217             	3.71667290e+02
218             	3.71687059e+02
219             	3.71702945e+02
220             	3.71718033e+02
221             	3.71734106e+02
222             	3.71750502e+02
223             	3.71763280e+02
224             	3.71772665e+02
225             	3.71786669e+02
226             	3.71802384e+02
227             	3.71816801e+02
228             	3.71829387e+02
229             	3.71842552e+02
230             	3.71854462e+02
231             	3.71869741e+02
232             	3.71883705e+02
233             	3.71897788e+02
234             	3.71911545e+02
235             	3.71926472e+02
236             	3.71944586e+02
237             	3.71965470e+02
238             	3.71989882e+02
239             	3.72012237e+02
240             	3.72034618e+02
241             	3.72056297e+02
242             	3.72073827e+02
243             	3.72087298e+02
244             	3.72097601e+02
245             	3.72104689e+02
246             	3.72109422e+02
247             	3.72111935e+02
248             	3.72112603e+02
249             	3.72112946e+02
250             	3.72113957e+02
251             	3.72114295e+02
252             	3.72114088e+02
253             	3.72112498e+02
254             	3.72110413e+02
255             	3.72107722e+02
256             	3.72104134e+02
257             	3.72100697e+02
258             	3.72097386e+02
259             	3.72094842e+02
260             	3.72092698e+02
261             	3.72090768e+02
262             	3.72089066e+02
263             	3.72088756e+02
264             	3.72090346e+02
265             	3.72094275e+02
266             	3.72100585e+02
267             	3.72109369e+02
268             	3.72120485e+02
269             	3.72133768e+02
270             	3.72148981e+02
271             	3.72164764e+02
272             	3.72180268e+02
273             	3.72195582e+02
274             	3.72210356e+02
275             	3.72224385e+02
276             	3.72237583e+02
277             	3.72250430e+02
278             	3.72263018e+02
279             	3.72275102e+02
280             	3.72286282e+02
281             	3.72296469e+02
282             	3.72305500e+02
283             	3.72313067e+02
284             	3.72319170e+02
285             	3.72323732e+02
286             	3.72326889e+02
287             	3.72328904e+02
288             	3.72330106e+02
289             	3.72330713e+02
290             	3.72330912e+02
291             	3.72330744e+02
292             	3.72330233e+02
293             	3.72329491e+02
294             	3.72328623e+02
295             	3.72327687e+02
296             	3.72326788e+02
297             	3.72325890e+02
298             	3.72325331e+02
299             	3.72325394e+02
300             	3.72325971e+02
301             	3.72326804e+02
302             	3.72327870e+02
303             	3.72329179e+02
304             	3.72330700e+02
305             	3.72332567e+02
306             	3.72334882e+02
307             	3.72337673e+02
308             	3.72340838e+02
309             	3.72344149e+02
310             	3.72347574e+02
311             	3.72351162e+02
312             	3.72354745e+02
313             	3.72358267e+02
314             	3.72361800e+02
315             	3.72365449e+02
316             	3.72369317e+02
317             	3.72373510e+02
318             	3.72378195e+02
319             	3.72383411e+02
320             	3.72389204e+02
321             	3.72395557e+02
322             	3.72402336e+02
323             	3.72409451e+02
324             	3.72416843e+02
325             	3.72424418e+02
326             	3.72431959e+02
327             	3.72439217e+02
328             	3.72446099e+02
329             	3.72452546e+02
330             	3.72458537e+02
331             	3.72464050e+02
332             	3.72469116e+02
333             	3.72473760e+02
334             	3.72477969e+02
335             	3.72481799e+02
336             	3.72485236e+02
337             	3.72488135e+02
338             	3.72490435e+02
339             	3.72492237e+02
340             	3.72493697e+02
341             	3.72494935e+02
342             	3.72495970e+02
343             	3.72496853e+02
344             	3.72497823e+02
345             	3.72498935e+02
346             	3.72500079e+02
347             	3.72501316e+02
348             	3.72502856e+02
349             	3.72504912e+02
350             	3.72507456e+02
351             	3.72510346e+02
352             	3.72513698e+02
353             	3.72517639e+02
354             	3.72522142e+02
355             	3.72527060e+02
356             	3.72532120e+02
357             	3.72537135e+02
358             	3.72542147e+02
359             	3.72547049e+02
360             	3.72551707e+02
361             	3.72556187e+02
362             	3.72560620e+02
363             	3.72565039e+02
364             	3.72569389e+02
365             	3.72573702e+02
366             	3.72577985e+02
367             	3.72582209e+02
368             	3.72586317e+02
369             	3.72590288e+02
370             	3.72594090e+02
371             	3.72597815e+02
372             	3.72601443e+02
373             	3.72604959e+02
374             	3.72608417e+02
375             	3.72611903e+02
376             	3.72615526e+02
377             	3.72619293e+02
378             	3.72623098e+02
379             	3.72626969e+02
380             	3.72630950e+02
381             	3.72634980e+02
382             	3.72638918e+02
383             	3.72642691e+02
384             	3.72646318e+02
385             	3.72649746e+02
386             	3.72652908e+02
387             	3.72655791e+02
388             	3.72658452e+02
389             	3.72661002e+02
390             	3.72663445e+02
391             	3.72665713e+02
392             	3.72667835e+02
393             	3.72669896e+02
394             	3.72671959e+02
395             	3.72674009e+02
396             	3.72676054e+02
397             	3.72678129e+02
398             	3.72680278e+02
399             	3.72682520e+02
400             	3.72684854e+02
401             	3.72687311e+02
402             	3.72690019e+02
403             	3.72693007e+02
404             	3.72696200e+02
405             	3.72699522e+02
406             	3.72703054e+02
407             	3.72706840e+02
408             	3.72710808e+02
409             	3.72714835e+02
410             	3.72718841e+02
411             	3.72722785e+02
412             	3.72726627e+02
413             	3.72730330e+02
414             	3.72733862e+02
415             	3.72737251e+02
416             	3.72740541e+02
417             	3.72743734e+02
418             	3.72746773e+02
419             	3.72749692e+02
420             	3.72752547e+02
421             	3.72755324e+02
422             	3.72757990e+02
423             	3.72760512e+02
424             	3.72762960e+02
425             	3.72765382e+02
426             	3.72767722e+02
427             	3.72769961e+02
428             	3.72772169e+02
429             	3.72774457e+02
430             	3.72776901e+02
431             	3.72779439e+02
432             	3.72782105e+02
433             	3.72784960e+02
434             	3.72787982e+02
435             	3.72791078e+02
436             	3.72794166e+02
437             	3.72797216e+02
438             	3.72800227e+02
439             	3.72803129e+02
440             	3.72805841e+02
441             	3.72808390e+02
442             	3.72810831e+02
443             	3.72813215e+02
444             	3.72815573e+02
445             	3.72817891e+02
446             	3.72820180e+02
447             	3.72822453e+02
448             	3.72824706e+02
449             	3.72826883e+02
450             	3.72828979e+02
451             	3.72831011e+02
452             	3.72833017e+02
453             	3.72834955e+02
454             	3.72836810e+02
455             	3.72838635e+02
456             	3.72840524e+02
457             	3.72842554e+02
458             	3.72844692e+02
459             	3.72846915e+02
460             	3.72849267e+02
461             	3.72851776e+02
462             	3.72854394e+02
463             	3.72857042e+02
464             	3.72859646e+02
465             	3.72862191e+02
466             	3.72864697e+02
467             	3.72867114e+02
468             	3.72869414e+02
469             	3.72871610e+02
470             	3.72873725e+02
471             	3.72875790e+02
472             	3.72877807e+02
473             	3.72879792e+02
474             	3.72881740e+02
475             	3.72883632e+02
476             	3.72885432e+02
477             	3.72887126e+02
478             	3.72888719e+02
479             	3.72890255e+02
480             	3.72891724e+02
481             	3.72893111e+02
482             	3.72894460e+02
483             	3.72895843e+02
484             	3.72897303e+02
485             	3.72898807e+02
486             	3.72900343e+02
487             	3.72901963e+02
488             	3.72903706e+02
489             	3.72905548e+02
490             	3.72907418e+02
491             	3.72909275e+02
492             	3.72911132e+02
493             	3.72912974e+02
494             	3.72914767e+02
495             	3.72916493e+02
496             	3.72918159e+02
497             	3.72919779e+02
498             	3.72921378e+02
499             	3.72922951e+02
500             	3.72924500e+02
501             	3.72926025e+02
502             	3.72927526e+02
503             	3.72928987e+02
504             	3.72930391e+02
505             	3.72931738e+02
506             	3.72933062e+02
507             	3.72934342e+02
508             	3.72935560e+02
509             	3.72936747e+02
510             	3.72937951e+02
511             	3.72939238e+02
512             	3.72940583e+02
513             	3.72941971e+02
514             	3.72943430e+02
515             	3.72944984e+02
516             	3.72946615e+02
517             	3.72948293e+02
518             	3.72949978e+02
519             	3.72951661e+02
520             	3.72953321e+02
521             	3.72954937e+02
522             	3.72956499e+02
523             	3.72958010e+02
524             	3.72959485e+02
525             	3.72960945e+02
526             	3.72962374e+02
527             	3.72963756e+02
528             	3.72965107e+02
529             	3.72966438e+02
530             	3.72967729e+02
531             	3.72968947e+02
532             	3.72970087e+02
533             	3.72971178e+02
534             	3.72972213e+02
535             	3.72973165e+02
536             	3.72974049e+02
537             	3.72974913e+02
538             	3.72975798e+02
539             	3.72976721e+02
540             	3.72977690e+02
541             	3.72978709e+02
542             	3.72979807e+02
543             	3.72980985e+02
544             	3.72982216e+02
545             	3.72983477e+02
546             	3.72984749e+02
547             	3.72986011e+02
548             	3.72987253e+02
549             	3.72988465e+02
550             	3.72989656e+02
551             	3.72990840e+02
552             	3.72992038e+02
553             	3.72993249e+02
554             	3.72994461e+02
555             	3.72995668e+02
556             	3.72996865e+02
557             	3.72998044e+02
558             	3.72999187e+02
559             	3.73000291e+02
560             	3.73001348e+02
561             	3.73002359e+02
562             	3.73003307e+02
563             	3.73004184e+02
564             	3.73005012e+02
565             	3.73005820e+02
566             	3.73006638e+02
567             	3.73007480e+02
568             	3.73008344e+02
569             	3.73009236e+02
570             	3.73010161e+02
571             	3.73011110e+02
572             	3.73012067e+02
573             	3.73013022e+02
574             	3.73013975e+02
575             	3.73014924e+02
576             	3.73015857e+02
577             	3.73016774e+02
578             	3.73017680e+02
579             	3.73018584e+02
580             	3.73019496e+02
581             	3.73020400e+02
582             	3.73021294e+02
583             	3.73022183e+02
584             	3.73023065e+02
585             	3.73023923e+02
586             	3.73024747e+02
587             	3.73025525e+02
588             	3.73026272e+02
589             	3.73026987e+02
590             	3.73027662e+02
591             	3.73028305e+02
592             	3.73028938e+02
593             	3.73029579e+02
594             	3.73030233e+02
595             	3.73030900e+02
596             	3.73031590e+02
597             	3.73032315e+02
598             	3.73033071e+02
599             	3.73033845e+02
600             	3.73034630e+02
601             	3.73035418e+02
602             	3.73036205e+02
603             	3.73036988e+02
604             	3.73037764e+02
605             	3.73038541e+02
606             	3.73039317e+02
607             	3.73040099e+02
608             	3.73040889e+02
609             	3.73041676e+02
610             	3.73042457e+02
611             	3.73043232e+02
612             	3.73043998e+02
613             	3.73044738e+02
614             	3.73045443e+02
615             	3.73046115e+02
616             	3.73046757e+02
617             	3.73047367e+02
618             	3.73047944e+02
619             	3.73048498e+02
620             	3.73049042e+02
621             	3.73049591e+02
622             	3.73050148e+02
623             	3.73050714e+02
624             	3.73051289e+02
625             	3.73051874e+02
626             	3.73052463e+02
627             	3.73053052e+02
628             	3.73053642e+02
629             	3.73054234e+02
630             	3.73054827e+02
631             	3.73055418e+02
632             	3.73056005e+02
633             	3.73056592e+02
634             	3.73057182e+02
635             	3.73057772e+02
636             	3.73058357e+02
637             	3.73058939e+02
638             	3.73059518e+02
639             	3.73060092e+02
640             	3.73060657e+02
641             	3.73061210e+02
642             	3.73061757e+02
643             	3.73062296e+02
644             	3.73062828e+02
645             	3.73063352e+02
646             	3.73063872e+02
647             	3.73064394e+02
648             	3.73064921e+02
649             	3.73065456e+02
650             	3.73065999e+02
651             	3.73066550e+02
652             	3.73067108e+02
653             	3.73067667e+02
654             	3.73068225e+02
655             	3.73068781e+02
656             	3.73069333e+02
657             	3.73069879e+02
658             	3.73070418e+02
659             	3.73070949e+02
660             	3.73071472e+02
661             	3.73071987e+02
662             	3.73072489e+02
663             	3.73072979e+02
664             	3.73073460e+02
665             	3.73073928e+02
666             	3.73074377e+02
667             	3.73074805e+02
668             	3.73075215e+02
669             	3.73075615e+02
670             	3.73076000e+02
671             	3.73076368e+02
672             	3.73076723e+02
673             	3.73077073e+02
674             	3.73077425e+02
675             	3.73077780e+02
676             	3.73078137e+02
677             	3.73078501e+02
678             	3.73078878e+02
679             	3.73079264e+02
680             	3.73079657e+02
681             	3.73080055e+02
682             	3.73080457e+02
683             	3.73080862e+02
684             	3.73081267e+02
685             	3.73081673e+02
686             	3.73082079e+02
687             	3.73082490e+02
688             	3.73082905e+02
689             	3.73083318e+02
690             	3.73083729e+02
691             	3.73084140e+02
692             	3.73084548e+02
693             	3.73084949e+02
694             	3.73085338e+02
695             	3.73085717e+02
696             	3.73086088e+02
697             	3.73086449e+02
698             	3.73086795e+02
699             	3.73087128e+02
700             	3.73087455e+02
701             	3.73087782e+02
702             	3.73088109e+02
703             	3.73088437e+02
704             	3.73088767e+02
705             	3.73089102e+02
706             	3.73089441e+02
707             	3.73089781e+02
708             	3.73090119e+02
709             	3.73090454e+02
710             	3.73090787e+02
711             	3.73091117e+02
712             	3.73091440e+02
713             	3.73091759e+02
714             	3.73092077e+02
715             	3.73092397e+02
716             	3.73092716e+02
717             	3.73093033e+02
718             	3.73093349e+02
719             	3.73093667e+02
720             	3.73093981e+02
721             	3.73094290e+02
722             	3.73094591e+02
723             	3.73094884e+02
724             	3.73095167e+02
725             	3.73095440e+02
726             	3.73095703e+02
727             	3.73095961e+02
728             	3.73096219e+02
729             	3.73096479e+02
730             	3.73096742e+02
731             	3.73097009e+02
732             	3.73097282e+02
733             	3.73097559e+02
734             	3.73097838e+02
735             	3.73098117e+02
736             	3.73098393e+02
737             	3.73098671e+02
738             	3.73098949e+02
739             	3.73099226e+02
740             	3.73099501e+02
741             	3.73099776e+02
742             	3.73100054e+02
743             	3.73100332e+02
744             	3.73100608e+02
745             	3.73100884e+02
746             	3.73101163e+02
747             	3.73101441e+02
748             	3.73101714e+02
749             	3.73101979e+02
750             	3.73102236e+02
751             	3.73102486e+02
752             	3.73102729e+02
753             	3.73102962e+02
754             	3.73103187e+02
755             	3.73103407e+02
756             	3.73103622e+02
757             	3.73103837e+02
758             	3.73104054e+02
759             	3.73104273e+02
760             	3.73104495e+02
761             	3.73104716e+02
762             	3.73104936e+02
763             	3.73105154e+02
764             	3.73105370e+02
765             	3.73105585e+02
766             	3.73105800e+02
767             	3.73106013e+02
768             	3.73106226e+02
769             	3.73106440e+02
770             	3.73106657e+02
771             	3.73106872e+02
772             	3.73107088e+02
773             	3.73107305e+02
774             	3.73107524e+02
775             	3.73107742e+02
776             	3.73107957e+02
777             	3.73108167e+02
778             	3.73108374e+02
779             	3.73108576e+02
780             	3.73108774e+02
781             	3.73108967e+02
782             	3.73109155e+02
783             	3.73109341e+02
784             	3.73109525e+02
785             	3.73109709e+02
786             	3.73109894e+02
787             	3.73110080e+02
788             	3.73110267e+02
789             	3.73110453e+02
790             	3.73110637e+02
791             	3.73110820e+02
792             	3.73111002e+02
793             	3.73111185e+02
794             	3.73111366e+02
795             	3.73111547e+02
796             	3.73111726e+02
797             	3.73111907e+02
798             	3.73112087e+02
799             	3.73112267e+02
800             	3.73112447e+02
801             	3.73112628e+02
802             	3.73112810e+02
803             	3.73112989e+02
804             	3.73113166e+02
805             	3.73113338e+02
806             	3.73113507e+02
807             	3.73113671e+02
808             	3.73113831e+02
809             	3.73113987e+02
810             	3.73114141e+02
811             	3.73114292e+02
812             	3.73114443e+02
813             	3.73114592e+02
814             	3.73114742e+02
815             	3.73114891e+02
816             	3.73115041e+02
817             	3.73115191e+02
818             	3.73115339e+02
819             	3.73115487e+02
820             	3.73115633e+02
821             	3.73115779e+02
822             	3.73115924e+02
823             	3.73116070e+02
824             	3.73116216e+02
825             	3.73116364e+02
826             	3.73116513e+02
827             	3.73116664e+02
828             	3.73116814e+02
829             	3.73116965e+02
830             	3.73117117e+02
831             	3.73117270e+02
832             	3.73117422e+02
833             	3.73117571e+02
834             	3.73117718e+02
835             	3.73117862e+02
836             	3.73118004e+02
837             	3.73118144e+02
838             	3.73118281e+02
839             	3.73118415e+02
840             	3.73118546e+02
841             	3.73118675e+02
842             	3.73118803e+02
843             	3.73118930e+02
844             	3.73119054e+02
845             	3.73119177e+02
846             	3.73119296e+02
847             	3.73119413e+02
848             	3.73119528e+02
849             	3.73119641e+02
850             	3.73119753e+02
851             	3.73119862e+02
852             	3.73119971e+02
853             	3.73120078e+02
854             	3.73120185e+02
855             	3.73120290e+02
856             	3.73120395e+02
857             	3.73120500e+02
858             	3.73120604e+02
859             	3.73120707e+02
860             	3.73120809e+02
861             	3.73120910e+02
862             	3.73121009e+02
863             	3.73121108e+02
864             	3.73121207e+02
865             	3.73121306e+02
866             	3.73121405e+02
867             	3.73121506e+02
868             	3.73121608e+02
869             	3.73121711e+02
870             	3.73121814e+02
871             	3.73121919e+02
872             	3.73122025e+02
873             	3.73122131e+02
874             	3.73122239e+02
875             	3.73122347e+02
876             	3.73122456e+02
877             	3.73122566e+02
878             	3.73122676e+02
879             	3.73122787e+02
880             	3.73122898e+02
881             	3.73123008e+02
882             	3.73123119e+02
883             	3.73123230e+02
884             	3.73123340e+02
885             	3.73123450e+02
886             	3.73123559e+02
887             	3.73123665e+02
888             	3.73123771e+02
889             	3.73123875e+02
890             	3.73123977e+02
891             	3.73124078e+02
892             	3.73124175e+02
893             	3.73124270e+02
894             	3.73124363e+02
895             	3.73124454e+02
896             	3.73124538e+02
897             	3.73124622e+02
898             	3.73124704e+02
899             	3.73124785e+02
900             	3.73124865e+02
901             	3.73124944e+02
902             	3.73125022e+02
903             	3.73125099e+02
904             	3.73125175e+02
905             	3.73125250e+02
906             	3.73125325e+02
907             	3.73125399e+02
908             	3.73125473e+02
909             	3.73125547e+02
910             	3.73125620e+02
911             	3.73125693e+02
912             	3.73125767e+02
913             	3.73125841e+02
914             	3.73125915e+02
915             	3.73125989e+02
916             	3.73126065e+02
917             	3.73126140e+02
918             	3.73126217e+02
919             	3.73126294e+02
920             	3.73126372e+02
921             	3.73126451e+02
922             	3.73126530e+02
923             	3.73126610e+02
924             	3.73126689e+02
925             	3.73126768e+02
926             	3.73126847e+02
927             	3.73126926e+02
928             	3.73127004e+02
929             	3.73127082e+02
930             	3.73127158e+02
931             	3.73127234e+02
932             	3.73127308e+02
933             	3.73127382e+02