# Region        : cellZone pcb
# Cells         : 514
# Volume        : 1.00405473e+00
# Time          	volAverage(T)
1               	3.00004728e+02
2               	3.00013833e+02
3               	3.00026600e+02
4               	3.00043176e+02
5               	3.00063118e+02
6               	3.00085142e+02
7               	3.00108890e+02
8               	3.00136350e+02
9               	3.00167771e+02
10              	3.00200818e+02
11              	3.00235979e+02
12              	3.00272935e+02
13              	3.00311799e+02
14              	3.00351136e+02
15              	3.00390751e+02
16              	3.00435065e+02
17              	3.00484173e+02
18              	3.00534062e+02
19              	3.00583719e+02
20              	3.00633241e+02
21              	3.00683313e+02
22              	3.00733087e+02
23              	3.00782947e+02
24              	3.00832998e+02
25              	3.00887883e+02
26              	3.00945670e+02
27              	3.01003906e+02
28              	3.01065941e+02
29              	3.01131370e+02
30              	3.01196125e+02
31              	3.01257817e+02
32              	3.01317102e+02
33              	3.01374570e+02
34              	3.01430339e+02
35              	3.01486645e+02
36              	3.01545440e+02
37              	3.01607522e+02
38              	3.01672530e+02
39              	3.01735930e+02
40              	3.01798976e+02
41              	3.01862700e+02
42              	3.01929796e+02
43              	3.01999192e+02
44              	3.02068497e+02
45              	3.02136781e+02
46              	3.02205753e+02
47              	3.02273649e+02
48              	3.02341140e+02
49              	3.02411924e+02
50              	3.02483702e+02
51              	3.02555401e+02
52              	3.02624527e+02
53              	3.02691398e+02
54              	3.02761401e+02
55              	3.02827541e+02
56              	3.02894266e+02
57              	3.02964652e+02
58              	3.03038200e+02
59              	3.03111694e+02
60              	3.03180682e+02
61              	3.03245858e+02
62              	3.03321856e+02
63              	3.03401828e+02
64              	3.03479946e+02
65              	3.03549339e+02
66              	3.03613922e+02
67              	3.03677084e+02
68              	3.03743488e+02
69              	3.03809506e+02
70              	3.03877736e+02
71              	3.03945102e+02
72              	3.04013609e+02
73              	3.04079543e+02
74              	3.04133918e+02
75              	3.04187438e+02
76              	3.04246641e+02
77              	3.04306524e+02
78              	3.04366502e+02
79              	3.04426864e+02
80              	3.04488424e+02
81              	3.04551846e+02
82              	3.04615956e+02
83              	3.04672446e+02
84              	3.04731187e+02
85              	3.04792351e+02
86              	3.04852443e+02
87              	3.04905887e+02
88              	3.04958659e+02
89              	3.05015732e+02
90              	3.05072997e+02
91              	3.05130226e+02
92              	3.05188750e+02
93              	3.05246257e+02
94              	3.05299731e+02
95              	3.05349274e+02
96              	3.05401281e+02
97              	3.05451424e+02
98              	3.05498709e+02
99              	3.05544885e+02
100             	3.05591969e+02
101             	3.05640606e+02
102             	3.05689118e+02
103             	3.05739300e+02
104             	3.05789100e+02
105             	3.05837728e+02
106             	3.05885882e+02
107             	3.05933406e+02
108             	3.05980061e+02
109             	3.06026918e+02
110             	3.06074795e+02
111             	3.06123259e+02
112             	3.06170824e+02
113             	3.06215930e+02
114             	3.06260471e+02
115             	3.06305661e+02
116             	3.06352744e+02
117             	3.06396498e+02
118             	3.06438254e+02
119             	3.06480282e+02
120             	3.06523590e+02
121             	3.06566568e+02
122             	3.06608299e+02
123             	3.06651171e+02
124             	3.06693945e+02
125             	3.06737147e+02
126             	3.06778295e+02
127             	3.06817082e+02
128             	3.06858036e+02
129             	3.06898202e+02
130             	3.06936332e+02
131             	3.06974867e+02
132             	3.07014229e+02
133             	3.07053510e+02
134             	3.07093305e+02
135             	3.07132324e+02
136             	3.07170155e+02
137             	3.07206172e+02
138             	3.07240650e+02
139             	3.07274816e+02
140             	3.07310251e+02
141             	3.07346755e+02
142             	3.07382966e+02
143             	3.07418556e+02
144             	3.07454028e+02
145             	3.07489650e+02
146             	3.07526241e+02
147             	3.07561634e+02
148             	3.07590366e+02
149             	3.07621856e+02
150             	3.07652092e+02
151             	3.07678683e+02
152             	3.07704186e+02
153             	3.07731848e+02
154             	3.07762425e+02
155             	3.07793506e+02
156             	3.07824453e+02
157             	3.07853807e+02
158             	3.07882307e+02
159             	3.07911641e+02
160             	3.07941931e+02
161             	3.07971667e+02
162             	3.08000006e+02
163             	3.08029717e+02
164             	3.08059958e+02
165             	3.08087992e+02
166             	3.08116663e+02
167             	3.08143916e+02
168             	3.08170766e+02
169             	3.08197225e+02
170             	3.08222236e+02
171             	3.08246129e+02
172             	3.08270254e+02
173             	3.08295255e+02
174             	3.08320281e+02
175             	3.08346413e+02
176             	3.08374241e+02
177             	3.08399581e+02
178             	3.08423860e+02
179             	3.08445252e+02
180             	3.08471138e+02
181             	3.08494962e+02
182             	3.08521538e+02
183             	3.08544510e+02
184             	3.08564695e+02
185             	3.08586148e+02
186             	3.08608767e+02
187             	3.08631172e+02
188             	3.08652027e+02
189             	3.08671910e+02
190             	3.08690591e+02
191             	3.08708333e+02
192             	3.08726805e+02
193             	3.08746042e+02
194             	3.08764863e+02
195             	3.08782860e+02
196             	3.08801224e+02
197             	3.08821645e+02
198             	3.08842911e+02
199             	3.08861109e+02
200             	3.08877550e+02
201             	3.08893991e+02
202             	3.08910480e+02
203             	3.08926973e+02
204             	3.08943458e+02
205             	3.08960057e+02
206             	3.08977077e+02
207             	3.08993760e+02
208             	3.09012216e+02
209             	3.09030469e+02
210             	3.09047983e+02
211             	3.09066558e+02
212             	3.09084658e+02
213             	3.09103207e+02
214             	3.09120933e+02
215             	3.09137608e+02
216             	3.09154009e+02
217             	3.09168520e+02
218             	3.09181650e+02
219             	3.09194439e+02
220             	3.09207089e+02
221             	3.09220269e+02
222             	3.09233156e+02
223             	3.09245805e+02
224             	3.09258569e+02
225             	3.09271380e+02
226             	3.09284155e+02
227             	3.09297032e+02
228             	3.09310223e+02
229             	3.09323720e+02
230             	3.09337399e+02
231             	3.09351279e+02
232             	3.09364888e+02
233             	3.09378361e+02
234             	3.09391827e+02
235             	3.09404854e+02
236             	3.09417359e+02
237             	3.09429330e+02
238             	3.09440631e+02
239             	3.09451189e+02
240             	3.09461196e+02
241             	3.09471167e+02
242             	3.09480778e+02
243             	3.09490843e+02
244             	3.09500715e+02
245             	3.09510596e+02
246             	3.09520804e+02
247             	3.09531422e+02
248             	3.09542204e+02
249             	3.09553183e+02
250             	3.09564312e+02
251             	3.09575494e+02
252             	3.09586027e+02
253             	3.09596517e+02
254             	3.09607085e+02
255             	3.09617132e+02
256             	3.09626189e+02
257             	3.09634625e+02
258             	3.09642912e+02
259             	3.09651653e+02
260             	3.09659813e+02
261             	3.09667518e+02
262             	3.09675246e+02
263             	3.09683277e+02
264             	3.09691280e+02
265             	3.09699167e+02
266             	3.09707039e+02
267             	3.09714778e+02
268             	3.09722349e+02
269             	3.09729775e+02
270             	3.09737065e+02
271             	3.09744226e+02
272             	3.09751319e+02
273             	3.09758469e+02
274             	3.09765444e+02
275             	3.09772377e+02
276             	3.09779436e+02
277             	3.09786659e+02
278             	3.09793993e+02
279             	3.09801466e+02
280             	3.09808495e+02
281             	3.09815648e+02
282             	3.09823133e+02
283             	3.09830436e+02
284             	3.09837453e+02
285             	3.09844273e+02
286             	3.09850695e+02
287             	3.09856685e+02
288             	3.09862329e+02
289             	3.09867695e+02
290             	3.09872892e+02
291             	3.09878071e+02
292             	3.09882866e+02
293             	3.09887411e+02
294             	3.09891828e+02
295             	3.09896798e+02
296             	3.09901431e+02
297             	3.09905836e+02
298             	3.09910264e+02
299             	3.09914811e+02
300             	3.09919119e+02
301             	3.09923849e+02
302             	3.09929165e+02
303             	3.09934624e+02
304             	3.09940062e+02
305             	3.09945454e+02
306             	3.09950813e+02
307             	3.09956155e+02
308             	3.09961443e+02
309             	3.09966629e+02
310             	3.09971671e+02
311             	3.09976535e+02
312             	3.09981215e+02
313             	3.09985729e+02
314             	3.09990141e+02
315             	3.09994508e+02
316             	3.09998703e+02
317             	3.10002656e+02
318             	3.10006439e+02
319             	3.10010084e+02
320             	3.10013602e+02
321             	3.10017018e+02
322             	3.10020473e+02
323             	3.10023874e+02
324             	3.10027465e+02
325             	3.10031313e+02
326             	3.10035360e+02
327             	3.10039681e+02
328             	3.10044221e+02
329             	3.10048696e+02
330             	3.10052767e+02
331             	3.10056406e+02
332             	3.10059864e+02
333             	3.10063359e+02
334             	3.10066829e+02
335             	3.10070274e+02
336             	3.10073668e+02
337             	3.10076955e+02
338             	3.10080089e+02
339             	3.10083014e+02
340             	3.10085730e+02
341             	3.10088228e+02
342             	3.10090505e+02
343             	3.10092627e+02
344             	3.10094744e+02
345             	3.10096867e+02
346             	3.10099284e+02
347             	3.10101656e+02
348             	3.10103991e+02
349             	3.10106512e+02
350             	3.10109266e+02
351             	3.10112293e+02
352             	3.10115504e+02
353             	3.10118795e+02
354             	3.10122147e+02
355             	3.10125499e+02
356             	3.10128559e+02
357             	3.10131454e+02
358             	3.10134249e+02
359             	3.10136651e+02
360             	3.10138926e+02
361             	3.10141207e+02
362             	3.10143402e+02
363             	3.10145479e+02
364             	3.10147683e+02
365             	3.10149614e+02
366             	3.10151461e+02
367             	3.10154174e+02
368             	3.10156497e+02
369             	3.10158438e+02
370             	3.10160422e+02
371             	3.10162393e+02
372             	3.10164321e+02
373             	3.10166241e+02
374             	3.10168070e+02
375             	3.10169777e+02
376             	3.10171405e+02
377             	3.10172948e+02
378             	3.10174445e+02
379             	3.10175902e+02
380             	3.10177566e+02
381             	3.10179472e+02
382             	3.10181160e+02
383             	3.10182837e+02
384             	3.10185184e+02
385             	3.10187919e+02
386             	3.10190554e+02
387             	3.10193004e+02
388             	3.10195385e+02
389             	3.10197559e+02
390             	3.10199212e+02
391             	3.10200397e+02
392             	3.10201318e+02
393             	3.10201991e+02
394             	3.10202340e+02
395             	3.10202492e+02
396             	3.10202639e+02
397             	3.10203078e+02
398             	3.10203633e+02
399             	3.10204370e+02
400             	3.10205259e+02
401             	3.10206072e+02
402             	3.10206761e+02
403             	3.10207501e+02
404             	3.10208741e+02
405             	3.10210443e+02
406             	3.10212380e+02
407             	3.10214476e+02
408             	3.10216594e+02
409             	3.10218658e+02
410             	3.10220595e+02
411             	3.10222531e+02
412             	3.10224481e+02
413             	3.10226312e+02
414             	3.10227980e+02
415             	3.10229458e+02
416             	3.10230746e+02
417             	3.10231855e+02
418             	3.10232803e+02
419             	3.10233582e+02
420             	3.10234243e+02
421             	3.10234843e+02
422             	3.10235298e+02
423             	3.10235809e+02
424             	3.10236284e+02
425             	3.10236731e+02
426             	3.10237319e+02
427             	3.10238067e+02
428             	3.10238970e+02
429             	3.10240042e+02
430             	3.10241285e+02
431             	3.10242697e+02
432             	3.10244276e+02
433             	3.10245997e+02
434             	3.10247815e+02
435             	3.10249619e+02
436             	3.10251363e+02
437             	3.10253049e+02
438             	3.10254687e+02
439             	3.10256271e+02
440             	3.10257784e+02
441             	3.10259202e+02
442             	3.10260535e+02
443             	3.10261808e+02
444             	3.10263030e+02
445             	3.10264198e+02
446             	3.10265317e+02
447             	3.10266371e+02
448             	3.10267360e+02
449             	3.10268306e+02
450             	3.10269235e+02
451             	3.10270155e+02
452             	3.10271081e+02
453             	3.10272031e+02
454             	3.10273016e+02
455             	3.10274047e+02
456             	3.10275109e+02
457             	3.10276160e+02
458             	3.10277180e+02
459             	3.10278077e+02
460             	3.10279141e+02
461             	3.10280412e+02
462             	3.10281766e+02
463             	3.10283156e+02
464             	3.10284498e+02
465             	3.10285786e+02
466             	3.10287047e+02
467             	3.10288299e+02
468             	3.10289541e+02
469             	3.10290778e+02
470             	3.10292003e+02
471             	3.10293216e+02
472             	3.10294404e+02
473             	3.10295560e+02
474             	3.10296665e+02
475             	3.10297711e+02
476             	3.10298681e+02
477             	3.10299556e+02
478             	3.10300332e+02
479             	3.10301031e+02
480             	3.10301675e+02
481             	3.10302266e+02
482             	3.10302795e+02
483             	3.10303214e+02
484             	3.10303511e+02
485             	3.10303711e+02
486             	3.10303866e+02
487             	3.10304016e+02
488             	3.10304189e+02
489             	3.10304397e+02
490             	3.10304650e+02
491             	3.10304950e+02
492             	3.10305298e+02
493             	3.10305676e+02
494             	3.10306048e+02
495             	3.10306399e+02
496             	3.10306755e+02
497             	3.10307152e+02
498             	3.10307621e+02
499             	3.10308168e+02
500             	3.10308774e+02
501             	3.10309416e+02
502             	3.10310082e+02
503             	3.10310774e+02
504             	3.10311495e+02
505             	3.10312242e+02
506             	3.10313009e+02
507             	3.10313794e+02
508             	3.10314594e+02
509             	3.10315410e+02
510             	3.10316244e+02
511             	3.10317098e+02
512             	3.10317980e+02
513             	3.10318888e+02
514             	3.10319782e+02
515             	3.10320627e+02
516             	3.10321401e+02
517             	3.10322110e+02
518             	3.10322755e+02
519             	3.10323325e+02
520             	3.10323775e+02
521             	3.10324089e+02
522             	3.10324290e+02
523             	3.10324411e+02
524             	3.10324480e+02
525             	3.10324517e+02
526             	3.10324537e+02
527             	3.10324551e+02
528             	3.10324570e+02
529             	3.10324596e+02
530             	3.10324625e+02
531             	3.10324618e+02
532             	3.10324512e+02
533             	3.10324271e+02
534             	3.10324254e+02
535             	3.10324473e+02
536             	3.10324734e+02
537             	3.10325055e+02
538             	3.10325414e+02
539             	3.10325776e+02
540             	3.10326169e+02
541             	3.10326622e+02
542             	3.10327147e+02
543             	3.10327745e+02
544             	3.10328412e+02
545             	3.10329146e+02
546             	3.10329919e+02
547             	3.10330716e+02
548             	3.10331515e+02
549             	3.10332298e+02
550             	3.10333048e+02
551             	3.10333741e+02
552             	3.10334377e+02
553             	3.10334940e+02
554             	3.10335439e+02
555             	3.10335893e+02
556             	3.10336305e+02
557             	3.10336672e+02
558             	3.10336967e+02
559             	3.10337176e+02
560             	3.10337319e+02
561             	3.10337415e+02
562             	3.10337494e+02
563             	3.10337584e+02
564             	3.10337705e+02
565             	3.10337863e+02
566             	3.10338068e+02
567             	3.10338320e+02
568             	3.10338600e+02
569             	3.10338869e+02
570             	3.10339107e+02
571             	3.10339346e+02
572             	3.10339614e+02
573             	3.10339961e+02
574             	3.10340391e+02
575             	3.10340868e+02
576             	3.10341382e+02
577             	3.10341932e+02
578             	3.10342526e+02
579             	3.10343167e+02
580             	3.10343853e+02
581             	3.10344583e+02
582             	3.10345361e+02
583             	3.10346184e+02
584             	3.10347048e+02
585             	3.10347949e+02
586             	3.10348887e+02
587             	3.10349869e+02
588             	3.10350891e+02
589             	3.10351892e+02
590             	3.10352829e+02
591             	3.10353707e+02
592             	3.10354547e+02
593             	3.10355354e+02
594             	3.10356115e+02
595             	3.10356784e+02
596             	3.10357340e+02
597             	3.10357797e+02
598             	3.10358185e+02
599             	3.10358528e+02
600             	3.10358850e+02
601             	3.10359170e+02
602             	3.10359498e+02
603             	3.10359842e+02
604             	3.10360208e+02
605             	3.10360595e+02
606             	3.10360976e+02
607             	3.10361319e+02
608             	3.10361531e+02
609             	3.10361874e+02
610             	3.10362408e+02
611             	3.10362994e+02
612             	3.10363611e+02
613             	3.10364257e+02
614             	3.10364941e+02
615             	3.10365658e+02
616             	3.10366405e+02
617             	3.10367190e+02
618             	3.10368016e+02
619             	3.10368878e+02
620             	3.10369775e+02
621             	3.10370701e+02
622             	3.10371648e+02
623             	3.10372602e+02
624             	3.10373549e+02
625             	3.10374471e+02
626             	3.10375338e+02
627             	3.10376123e+02
628             	3.10376800e+02
629             	3.10377388e+02
630             	3.10377916e+02
631             	3.10378391e+02
632             	3.10378801e+02
633             	3.10379113e+02
634             	3.10379318e+02
635             	3.10379434e+02
636             	3.10379474e+02
637             	3.10379475e+02
638             	3.10379475e+02
639             	3.10379492e+02
640             	3.10379534e+02
641             	3.10379606e+02
642             	3.10379704e+02
643             	3.10379803e+02
644             	3.10379861e+02
645             	3.10379870e+02
646             	3.10379837e+02
647             	3.10379934e+02
648             	3.10380175e+02
649             	3.10380461e+02
650             	3.10380773e+02
651             	3.10381115e+02
652             	3.10381503e+02
653             	3.10381939e+02
654             	3.10382425e+02
655             	3.10382961e+02
656             	3.10383541e+02
657             	3.10384155e+02
658             	3.10384798e+02
659             	3.10385462e+02
660             	3.10386135e+02
661             	3.10386811e+02
662             	3.10387479e+02
663             	3.10388134e+02
664             	3.10388741e+02
665             	3.10389251e+02
666             	3.10389668e+02
667             	3.10390020e+02
668             	3.10390317e+02
669             	3.10390560e+02
670             	3.10390740e+02
671             	3.10390835e+02
672             	3.10390846e+02
673             	3.10390788e+02
674             	3.10390687e+02
675             	3.10390562e+02
676             	3.10390446e+02
677             	3.10390357e+02
678             	3.10390306e+02
679             	3.10390299e+02
680             	3.10390327e+02
681             	3.10390359e+02
682             	3.10390352e+02
683             	3.10390323e+02
684             	3.10390271e+02
685             	3.10390309e+02
686             	3.10390473e+02
687             	3.10390696e+02
688             	3.10390955e+02
689             	3.10391250e+02
690             	3.10391593e+02
691             	3.10391985e+02
692             	3.10392428e+02
693             	3.10392920e+02
694             	3.10393461e+02
695             	3.10394041e+02
696             	3.10394648e+02
697             	3.10395279e+02
698             	3.10395933e+02
699             	3.10396610e+02
700             	3.10397287e+02
701             	3.10397951e+02
702             	3.10398577e+02
703             	3.10399142e+02
704             	3.10399638e+02
705             	3.10400076e+02
706             	3.10400457e+02
707             	3.10400778e+02
708             	3.10401006e+02
709             	3.10401137e+02
710             	3.10401203e+02
711             	3.10401223e+02
712             	3.10401212e+02
713             	3.10401200e+02
714             	3.10401205e+02
715             	3.10401240e+02
716             	3.10401316e+02
717             	3.10401433e+02
718             	3.10401573e+02
719             	3.10401704e+02
720             	3.10401804e+02
721             	3.10401893e+02
722             	3.10402017e+02
723             	3.10402196e+02
724             	3.10402479e+02
725             	3.10402843e+02
726             	3.10403244e+02
727             	3.10403672e+02
728             	3.10404137e+02
729             	3.10404648e+02
730             	3.10405209e+02
731             	3.10405815e+02
732             	3.10406460e+02
733             	3.10407139e+02
734             	3.10407841e+02
735             	3.10408557e+02
736             	3.10409287e+02
737             	3.10410029e+02
738             	3.10410782e+02
739             	3.10411537e+02
740             	3.10412259e+02
741             	3.10412920e+02
742             	3.10413515e+02
743             	3.10414033e+02
744             	3.10414463e+02
745             	3.10414769e+02
746             	3.10414949e+02
747             	3.10415037e+02
748             	3.10415062e+02
749             	3.10415040e+02
750             	3.10415000e+02
751             	3.10414968e+02
752             	3.10414958e+02
753             	3.10414982e+02
754             	3.10415048e+02
755             	3.10415147e+02
756             	3.10415250e+02
757             	3.10415324e+02
758             	3.10415385e+02
759             	3.10415437e+02
760             	3.10415602e+02
761             	3.10415899e+02
762             	3.10416258e+02
763             	3.10416653e+02
764             	3.10417080e+02
765             	3.10417544e+02
766             	3.10418055e+02
767             	3.10418616e+02
768             	3.10419224e+02
769             	3.10419871e+02
770             	3.10420547e+02
771             	3.10421240e+02
772             	3.10421936e+02
773             	3.10422631e+02
774             	3.10423327e+02
775             	3.10424040e+02
776             	3.10424734e+02
777             	3.10425390e+02
778             	3.10425982e+02
779             	3.10426492e+02
780             	3.10426904e+02
781             	3.10427223e+02
782             	3.10427450e+02
783             	3.10427566e+02
784             	3.10427578e+02
785             	3.10427529e+02
786             	3.10427430e+02
787             	3.10427311e+02
788             	3.10427197e+02
789             	3.10427104e+02
790             	3.10427038e+02
791             	3.10427005e+02
792             	3.10427004e+02
793             	3.10427013e+02
794             	3.10426991e+02
795             	3.10426935e+02
796             	3.10426777e+02
797             	3.10426771e+02
798             	3.10426954e+02
799             	3.10427187e+02
800             	3.10427447e+02
801             	3.10427736e+02
802             	3.10428067e+02
803             	3.10428445e+02
804             	3.10428872e+02
805             	3.10429346e+02
806             	3.10429864e+02
807             	3.10430416e+02
808             	3.10431000e+02
809             	3.10431618e+02
810             	3.10432261e+02
811             	3.10432901e+02
812             	3.10433544e+02
813             	3.10434157e+02
814             	3.10434720e+02
815             	3.10435213e+02
816             	3.10435604e+02
817             	3.10435908e+02
818             	3.10436147e+02
819             	3.10436327e+02
820             	3.10436453e+02
821             	3.10436498e+02
822             	3.10436465e+02
823             	3.10436384e+02
824             	3.10436270e+02
825             	3.10436136e+02
826             	3.10435999e+02
827             	3.10435879e+02
828             	3.10435798e+02
829             	3.10435764e+02
830             	3.10435771e+02
831             	3.10435787e+02
832             	3.10435777e+02
833             	3.10435738e+02
834             	3.10435656e+02
835             	3.10435648e+02
836             	3.10435757e+02
837             	3.10435925e+02
838             	3.10436129e+02
839             	3.10436367e+02
840             	3.10436653e+02
841             	3.10436992e+02
842             	3.10437386e+02
843             	3.10437830e+02
844             	3.10438324e+02
845             	3.10438858e+02
846             	3.10439424e+02
847             	3.10440011e+02
848             	3.10440617e+02
849             	3.10441238e+02
850             	3.10441861e+02
851             	3.10442473e+02
852             	3.10443047e+02
853             	3.10443561e+02
854             	3.10444005e+02
855             	3.10444391e+02
856             	3.10444721e+02
857             	3.10444990e+02
858             	3.10445165e+02
859             	3.10445240e+02
860             	3.10445247e+02
861             	3.10445214e+02
862             	3.10445148e+02
863             	3.10445071e+02
864             	3.10445002e+02
865             	3.10444961e+02
866             	3.10444955e+02
867             	3.10444988e+02
868             	3.10445043e+02
869             	3.10445084e+02
870             	3.10445091e+02
871             	3.10444984e+02
872             	3.10444971e+02
873             	3.10445134e+02
874             	3.10445370e+02
875             	3.10445641e+02
876             	3.10445946e+02
877             	3.10446295e+02
878             	3.10446690e+02
879             	3.10447124e+02
880             	3.10447593e+02
881             	3.10448096e+02
882             	3.10448636e+02
883             	3.10449214e+02
884             	3.10449827e+02
885             	3.10450467e+02
886             	3.10451128e+02
887             	3.10451795e+02
888             	3.10452444e+02
889             	3.10453052e+02
890             	3.10453586e+02
891             	3.10454042e+02
892             	3.10454429e+02
893             	3.10454765e+02
894             	3.10455053e+02
895             	3.10455267e+02
896             	3.10455387e+02
897             	3.10455424e+02
898             	3.10455397e+02
899             	3.10455324e+02
900             	3.10455226e+02
901             	3.10455126e+02
902             	3.10455046e+02
903             	3.10454989e+02
904             	3.10454966e+02
905             	3.10454978e+02
906             	3.10454977e+02
907             	3.10454926e+02
908             	3.10454850e+02
909             	3.10454782e+02
910             	3.10454822e+02
911             	3.10454967e+02
912             	3.10455159e+02
913             	3.10455381e+02
914             	3.10455632e+02
915             	3.10455924e+02
916             	3.10456261e+02
917             	3.10456639e+02
918             	3.10457059e+02
919             	3.10457521e+02
920             	3.10458027e+02
921             	3.10458568e+02
922             	3.10459140e+02
923             	3.10459735e+02
924             	3.10460347e+02
925             	3.10460971e+02
926             	3.10461593e+02
927             	3.10462160e+02
928             	3.10462635e+02
929             	3.10463037e+02
930             	3.10463381e+02
931             	3.10463670e+02
932             	3.10463891e+02
933             	3.10464011e+02