# Region        : cellZone fluid
# Cells         : 8722
# Volume        : 1.67606854e+01
# Time          	volAverage(T)
1               	2.99999808e+02
2               	2.99999796e+02
3               	2.99999954e+02
4               	3.00000176e+02
5               	3.00000370e+02
6               	3.00000598e+02
7               	3.00000833e+02
8               	3.00001143e+02
9               	3.00001548e+02
10              	3.00001930e+02
11              	3.00002350e+02
12              	3.00002872e+02
13              	3.00003387e+02
14              	3.00004063e+02
15              	3.00004669e+02
16              	3.00005506e+02
17              	3.00006048e+02
18              	3.00006724e+02
19              	3.00007792e+02
20              	3.00008204e+02
21              	3.00009013e+02
22              	3.00009621e+02
23              	3.00010286e+02
24              	3.00011035e+02
25              	3.00011844e+02
26              	3.00012748e+02
27              	3.00013819e+02
28              	3.00014854e+02
29              	3.00015785e+02
30              	3.00016930e+02
31              	3.00018061e+02
32              	3.00019147e+02
33              	3.00020181e+02
34              	3.00021003e+02
35              	3.00021864e+02
36              	3.00022492e+02
37              	3.00023409e+02
38              	3.00024348e+02
39              	3.00025061e+02
40              	3.00026209e+02
41              	3.00027304e+02
42              	3.00028566e+02
43              	3.00029940e+02
44              	3.00031068e+02
45              	3.00032233e+02
46              	3.00033323e+02
47              	3.00034623e+02
48              	3.00036081e+02
49              	3.00037279e+02
50              	3.00038460e+02
51              	3.00039480e+02
52              	3.00040917e+02
53              	3.00041537e+02
54              	3.00042502e+02
55              	3.00043910e+02
56              	3.00045474e+02
57              	3.00046636e+02
58              	3.00047604e+02
59              	3.00048292e+02
60              	3.00049016e+02
61              	3.00049638e+02
62              	3.00050442e+02
63              	3.00051522e+02
64              	3.00052612e+02
65              	3.00053273e+02
66              	3.00054050e+02
67              	3.00054914e+02
68              	3.00055768e+02
69              	3.00056936e+02
70              	3.00058110e+02
71              	3.00059297e+02
72              	3.00060352e+02
73              	3.00061039e+02
74              	3.00061682e+02
75              	3.00062550e+02
76              	3.00063441e+02
77              	3.00064646e+02
78              	3.00065974e+02
79              	3.00067276e+02
80              	3.00068581e+02
81              	3.00069737e+02
82              	3.00070420e+02
83              	3.00071495e+02
84              	3.00073220e+02
85              	3.00074102e+02
86              	3.00074978e+02
87              	3.00076164e+02
88              	3.00076985e+02
89              	3.00077991e+02
90              	3.00078777e+02
91              	3.00079599e+02
92              	3.00080964e+02
93              	3.00082274e+02
94              	3.00083483e+02
95              	3.00084227e+02
96              	3.00085084e+02
97              	3.00085849e+02
98              	3.00086820e+02
99              	3.00087920e+02
100             	3.00088631e+02
101             	3.00089463e+02
102             	3.00090426e+02
103             	3.00091389e+02
104             	3.00093052e+02
105             	3.00094159e+02
106             	3.00095345e+02
107             	3.00096191e+02
108             	3.00096542e+02
109             	3.00097894e+02
110             	3.00099091e+02
111             	3.00099751e+02
112             	3.00100328e+02
113             	3.00101059e+02
114             	3.00102077e+02
115             	3.00102856e+02
116             	3.00103682e+02
117             	3.00104415e+02
118             	3.00105005e+02
119             	3.00105770e+02
120             	3.00106501e+02
121             	3.00107055e+02
122             	3.00107527e+02
123             	3.00108113e+02
124             	3.00109144e+02
125             	3.00109505e+02
126             	3.00110420e+02
127             	3.00111337e+02
128             	3.00112077e+02
129             	3.00112709e+02
130             	3.00113377e+02
131             	3.00113631e+02
132             	3.00113946e+02
133             	3.00114144e+02
134             	3.00115889e+02
135             	3.00115890e+02
136             	3.00116057e+02
137             	3.00116445e+02
138             	3.00116931e+02
139             	3.00117233e+02
140             	3.00117835e+02
141             	3.00118199e+02
142             	3.00118313e+02
143             	3.00118203e+02
144             	3.00118638e+02
145             	3.00119181e+02
146             	3.00119542e+02
147             	3.00119996e+02
148             	3.00120813e+02
149             	3.00121693e+02
150             	3.00122284e+02
151             	3.00122705e+02
152             	3.00123482e+02
153             	3.00123933e+02
154             	3.00124627e+02
155             	3.00124963e+02
156             	3.00125433e+02
157             	3.00126088e+02
158             	3.00126787e+02
159             	3.00127412e+02
160             	3.00127338e+02
161             	3.00127956e+02
162             	3.00128352e+02
163             	3.00128615e+02
164             	3.00128934e+02
165             	3.00128936e+02
166             	3.00128865e+02
167             	3.00128748e+02
168             	3.00128654e+02
169             	3.00128603e+02
170             	3.00128607e+02
171             	3.00128920e+02
172             	3.00129463e+02
173             	3.00129913e+02
174             	3.00130061e+02
175             	3.00130400e+02
176             	3.00130857e+02
177             	3.00131422e+02
178             	3.00132100e+02
179             	3.00132883e+02
180             	3.00133693e+02
181             	3.00134404e+02
182             	3.00134828e+02
183             	3.00134792e+02
184             	3.00135322e+02
185             	3.00135626e+02
186             	3.00135994e+02
187             	3.00136252e+02
188             	3.00136302e+02
189             	3.00136396e+02
190             	3.00136959e+02
191             	3.00137230e+02
192             	3.00137558e+02
193             	3.00137841e+02
194             	3.00138214e+02
195             	3.00138695e+02
196             	3.00139035e+02
197             	3.00139491e+02
198             	3.00139875e+02
199             	3.00140421e+02
200             	3.00140803e+02
201             	3.00141394e+02
202             	3.00141931e+02
203             	3.00142335e+02
204             	3.00142278e+02
205             	3.00142440e+02
206             	3.00143014e+02
207             	3.00143370e+02
208             	3.00143552e+02
209             	3.00144145e+02
210             	3.00145275e+02
211             	3.00145158e+02
212             	3.00145279e+02
213             	3.00145383e+02
214             	3.00145655e+02
215             	3.00146018e+02
216             	3.00146466e+02
217             	3.00146875e+02
218             	3.00147534e+02
219             	3.00147946e+02
220             	3.00148510e+02
221             	3.00148344e+02
222             	3.00148700e+02
223             	3.00148897e+02
224             	3.00149028e+02
225             	3.00148990e+02
226             	3.00148890e+02
227             	3.00148775e+02
228             	3.00148620e+02
229             	3.00149103e+02
230             	3.00148955e+02
231             	3.00149045e+02
232             	3.00149181e+02
233             	3.00149709e+02
234             	3.00149786e+02
235             	3.00149938e+02
236             	3.00150090e+02
237             	3.00150320e+02
238             	3.00150685e+02
239             	3.00150812e+02
240             	3.00151367e+02
241             	3.00151806e+02
242             	3.00151752e+02
243             	3.00152438e+02
244             	3.00152932e+02
245             	3.00153344e+02
246             	3.00153644e+02
247             	3.00153916e+02
248             	3.00154090e+02
249             	3.00154554e+02
250             	3.00155511e+02
251             	3.00155442e+02
252             	3.00155636e+02
253             	3.00155732e+02
254             	3.00155892e+02
255             	3.00156165e+02
256             	3.00156431e+02
257             	3.00156702e+02
258             	3.00157057e+02
259             	3.00157350e+02
260             	3.00157067e+02
261             	3.00157448e+02
262             	3.00157655e+02
263             	3.00157780e+02
264             	3.00157925e+02
265             	3.00158088e+02
266             	3.00158265e+02
267             	3.00158437e+02
268             	3.00158615e+02
269             	3.00158793e+02
270             	3.00158954e+02
271             	3.00159120e+02
272             	3.00159272e+02
273             	3.00159387e+02
274             	3.00159528e+02
275             	3.00159736e+02
276             	3.00160172e+02
277             	3.00160176e+02
278             	3.00160372e+02
279             	3.00160571e+02
280             	3.00160760e+02
281             	3.00161006e+02
282             	3.00161150e+02
283             	3.00161279e+02
284             	3.00161632e+02
285             	3.00161573e+02
286             	3.00161828e+02
287             	3.00162071e+02
288             	3.00162240e+02
289             	3.00162400e+02
290             	3.00162538e+02
291             	3.00162582e+02
292             	3.00162678e+02
293             	3.00162812e+02
294             	3.00163000e+02
295             	3.00163513e+02
296             	3.00163414e+02
297             	3.00163513e+02
298             	3.00163631e+02
299             	3.00163807e+02
300             	3.00164002e+02
301             	3.00164215e+02
302             	3.00164430e+02
303             	3.00164637e+02
304             	3.00164771e+02
305             	3.00164838e+02
306             	3.00164852e+02
307             	3.00164906e+02
308             	3.00165161e+02
309             	3.00165282e+02
310             	3.00165329e+02
311             	3.00165427e+02
312             	3.00165568e+02
313             	3.00165777e+02
314             	3.00166003e+02
315             	3.00166021e+02
316             	3.00166156e+02
317             	3.00166263e+02
318             	3.00166411e+02
319             	3.00166569e+02
320             	3.00166732e+02
321             	3.00166917e+02
322             	3.00167167e+02
323             	3.00167106e+02
324             	3.00166938e+02
325             	3.00167374e+02
326             	3.00167673e+02
327             	3.00167647e+02
328             	3.00167548e+02
329             	3.00167432e+02
330             	3.00167331e+02
331             	3.00167445e+02
332             	3.00167732e+02
333             	3.00168243e+02
334             	3.00168084e+02
335             	3.00168165e+02
336             	3.00168374e+02
337             	3.00168572e+02
338             	3.00168978e+02
339             	3.00169206e+02
340             	3.00169142e+02
341             	3.00168967e+02
342             	3.00169482e+02
343             	3.00169652e+02
344             	3.00169650e+02
345             	3.00169527e+02
346             	3.00169489e+02
347             	3.00169308e+02
348             	3.00169330e+02
349             	3.00170404e+02
350             	3.00170240e+02
351             	3.00170216e+02
352             	3.00170258e+02
353             	3.00170477e+02
354             	3.00170871e+02
355             	3.00171269e+02
356             	3.00171728e+02
357             	3.00171947e+02
358             	3.00172189e+02
359             	3.00172287e+02
360             	3.00172040e+02
361             	3.00172389e+02
362             	3.00172497e+02
363             	3.00172518e+02
364             	3.00172360e+02
365             	3.00172182e+02
366             	3.00171975e+02
367             	3.00172503e+02
368             	3.00173478e+02
369             	3.00173186e+02
370             	3.00173212e+02
371             	3.00173141e+02
372             	3.00173156e+02
373             	3.00173028e+02
374             	3.00173516e+02
375             	3.00173804e+02
376             	3.00173969e+02
377             	3.00174245e+02
378             	3.00174600e+02
379             	3.00175049e+02
380             	3.00175119e+02
381             	3.00174919e+02
382             	3.00174770e+02
383             	3.00174590e+02
384             	3.00174409e+02
385             	3.00174209e+02
386             	3.00174112e+02
387             	3.00174035e+02
388             	3.00174280e+02
389             	3.00174480e+02
390             	3.00174690e+02
391             	3.00174672e+02
392             	3.00174721e+02
393             	3.00174737e+02
394             	3.00174727e+02
395             	3.00175084e+02
396             	3.00174900e+02
397             	3.00174855e+02
398             	3.00174798e+02
399             	3.00174839e+02
400             	3.00174958e+02
401             	3.00175112e+02
402             	3.00175248e+02
403             	3.00175270e+02
404             	3.00175564e+02
405             	3.00175763e+02
406             	3.00175906e+02
407             	3.00176023e+02
408             	3.00175776e+02
409             	3.00175980e+02
410             	3.00176092e+02
411             	3.00176121e+02
412             	3.00176062e+02
413             	3.00175992e+02
414             	3.00175910e+02
415             	3.00175898e+02
416             	3.00176037e+02
417             	3.00176223e+02
418             	3.00176283e+02
419             	3.00176308e+02
420             	3.00176414e+02
421             	3.00176561e+02
422             	3.00176581e+02
423             	3.00176769e+02
424             	3.00176618e+02
425             	3.00176359e+02
426             	3.00176128e+02
427             	3.00176401e+02
428             	3.00176438e+02
429             	3.00176473e+02
430             	3.00177185e+02
431             	3.00176817e+02
432             	3.00176969e+02
433             	3.00176599e+02
434             	3.00176518e+02
435             	3.00176454e+02
436             	3.00176412e+02
437             	3.00176400e+02
438             	3.00176433e+02
439             	3.00176525e+02
440             	3.00176701e+02
441             	3.00176707e+02
442             	3.00176431e+02
443             	3.00176178e+02
444             	3.00176624e+02
445             	3.00176779e+02
446             	3.00176607e+02
447             	3.00176275e+02
448             	3.00176026e+02
449             	3.00176828e+02
450             	3.00176521e+02
451             	3.00176348e+02
452             	3.00176282e+02
453             	3.00176360e+02
454             	3.00176545e+02
455             	3.00176795e+02
456             	3.00177033e+02
457             	3.00177210e+02
458             	3.00177617e+02
459             	3.00177900e+02
460             	3.00177974e+02
461             	3.00178038e+02
462             	3.00177576e+02
463             	3.00177166e+02
464             	3.00177241e+02
465             	3.00177168e+02
466             	3.00177040e+02
467             	3.00176858e+02
468             	3.00176893e+02
469             	3.00177217e+02
470             	3.00177053e+02
471             	3.00176997e+02
472             	3.00177019e+02
473             	3.00177162e+02
474             	3.00177276e+02
475             	3.00177346e+02
476             	3.00177388e+02
477             	3.00177425e+02
478             	3.00177427e+02
479             	3.00177403e+02
480             	3.00177361e+02
481             	3.00177329e+02
482             	3.00177278e+02
483             	3.00177308e+02
484             	3.00177316e+02
485             	3.00177388e+02
486             	3.00177201e+02
487             	3.00177148e+02
488             	3.00177271e+02
489             	3.00177282e+02
490             	3.00177202e+02
491             	3.00177094e+02
492             	3.00177053e+02
493             	3.00177027e+02
494             	3.00177141e+02
495             	3.00177546e+02
496             	3.00177369e+02
497             	3.00177322e+02
498             	3.00177380e+02
499             	3.00177378e+02
500             	3.00177521e+02
501             	3.00177644e+02
502             	3.00177749e+02
503             	3.00177857e+02
504             	3.00178012e+02
505             	3.00178088e+02
506             	3.00178102e+02
507             	3.00178115e+02
508             	3.00177917e+02
509             	3.00178129e+02
510             	3.00178147e+02
511             	3.00178023e+02
512             	3.00177905e+02
513             	3.00177809e+02
514             	3.00177819e+02
515             	3.00178056e+02
516             	3.00178200e+02
517             	3.00178149e+02
518             	3.00178070e+02
519             	3.00178089e+02
520             	3.00178164e+02
521             	3.00178272e+02
522             	3.00178326e+02
523             	3.00178439e+02
524             	3.00178008e+02
525             	3.00178340e+02
526             	3.00178458e+02
527             	3.00178431e+02
528             	3.00178355e+02
529             	3.00178150e+02
530             	3.00178009e+02
531             	3.00177860e+02
532             	3.00177789e+02
533             	3.00177744e+02
534             	3.00177708e+02
535             	3.00178018e+02
536             	3.00177752e+02
537             	3.00177612e+02
538             	3.00177534e+02
539             	3.00177486e+02
540             	3.00177438e+02
541             	3.00177393e+02
542             	3.00177363e+02
543             	3.00177360e+02
544             	3.00177372e+02
545             	3.00177358e+02
546             	3.00177324e+02
547             	3.00177151e+02
548             	3.00177234e+02
549             	3.00177365e+02
550             	3.00177401e+02
551             	3.00177372e+02
552             	3.00177360e+02
553             	3.00177260e+02
554             	3.00177333e+02
555             	3.00177206e+02
556             	3.00177196e+02
557             	3.00177235e+02
558             	3.00177448e+02
559             	3.00177318e+02
560             	3.00177277e+02
561             	3.00177313e+02
562             	3.00177402e+02
563             	3.00177466e+02
564             	3.00177537e+02
565             	3.00177577e+02
566             	3.00177483e+02
567             	3.00177653e+02
568             	3.00177659e+02
569             	3.00177719e+02
570             	3.00177722e+02
571             	3.00177722e+02
572             	3.00177687e+02
573             	3.00177652e+02
574             	3.00177634e+02
575             	3.00177615e+02
576             	3.00177605e+02
577             	3.00177630e+02
578             	3.00177631e+02
579             	3.00177630e+02
580             	3.00177634e+02
581             	3.00177826e+02
582             	3.00177664e+02
583             	3.00177545e+02
584             	3.00177483e+02
585             	3.00177495e+02
586             	3.00177487e+02
587             	3.00177486e+02
588             	3.00177488e+02
589             	3.00177561e+02
590             	3.00177504e+02
591             	3.00177527e+02
592             	3.00177457e+02
593             	3.00177316e+02
594             	3.00177482e+02
595             	3.00177555e+02
596             	3.00177557e+02
597             	3.00177537e+02
598             	3.00177557e+02
599             	3.00177610e+02
600             	3.00177742e+02
601             	3.00177679e+02
602             	3.00177852e+02
603             	3.00177814e+02
604             	3.00177842e+02
605             	3.00177919e+02
606             	3.00178037e+02
607             	3.00178069e+02
608             	3.00178013e+02
609             	3.00178007e+02
610             	3.00177866e+02
611             	3.00178008e+02
612             	3.00178037e+02
613             	3.00178034e+02
614             	3.00177944e+02
615             	3.00177862e+02
616             	3.00178663e+02
617             	3.00178361e+02
618             	3.00178189e+02
619             	3.00178119e+02
620             	3.00178172e+02
621             	3.00178222e+02
622             	3.00178248e+02
623             	3.00178457e+02
624             	3.00178332e+02
625             	3.00178207e+02
626             	3.00178187e+02
627             	3.00178265e+02
628             	3.00178258e+02
629             	3.00178243e+02
630             	3.00178174e+02
631             	3.00178642e+02
632             	3.00178416e+02
633             	3.00178338e+02
634             	3.00178338e+02
635             	3.00178287e+02
636             	3.00178346e+02
637             	3.00178376e+02
638             	3.00178380e+02
639             	3.00178330e+02
640             	3.00178352e+02
641             	3.00178309e+02
642             	3.00178240e+02
643             	3.00178221e+02
644             	3.00178172e+02
645             	3.00177977e+02
646             	3.00177858e+02
647             	3.00177908e+02
648             	3.00178024e+02
649             	3.00178084e+02
650             	3.00178137e+02
651             	3.00178209e+02
652             	3.00178283e+02
653             	3.00178334e+02
654             	3.00178411e+02
655             	3.00178651e+02
656             	3.00178473e+02
657             	3.00178361e+02
658             	3.00178465e+02
659             	3.00178374e+02
660             	3.00178317e+02
661             	3.00178413e+02
662             	3.00178569e+02
663             	3.00178631e+02
664             	3.00178794e+02
665             	3.00178855e+02
666             	3.00178931e+02
667             	3.00178968e+02
668             	3.00179055e+02
669             	3.00178962e+02
670             	3.00179012e+02
671             	3.00179061e+02
672             	3.00179023e+02
673             	3.00178950e+02
674             	3.00178925e+02
675             	3.00178848e+02
676             	3.00178718e+02
677             	3.00178658e+02
678             	3.00178610e+02
679             	3.00178632e+02
680             	3.00179029e+02
681             	3.00178818e+02
682             	3.00178762e+02
683             	3.00178817e+02
684             	3.00178874e+02
685             	3.00178852e+02
686             	3.00179013e+02
687             	3.00178818e+02
688             	3.00178889e+02
689             	3.00178988e+02
690             	3.00178999e+02
691             	3.00178963e+02
692             	3.00178899e+02
693             	3.00178842e+02
694             	3.00178736e+02
695             	3.00178783e+02
696             	3.00178723e+02
697             	3.00178561e+02
698             	3.00178543e+02
699             	3.00178570e+02
700             	3.00178588e+02
701             	3.00178597e+02
702             	3.00178685e+02
703             	3.00178747e+02
704             	3.00178769e+02
705             	3.00178844e+02
706             	3.00178891e+02
707             	3.00178934e+02
708             	3.00178993e+02
709             	3.00179029e+02
710             	3.00179062e+02
711             	3.00179113e+02
712             	3.00179134e+02
713             	3.00179220e+02
714             	3.00179136e+02
715             	3.00179232e+02
716             	3.00179242e+02
717             	3.00179169e+02
718             	3.00179082e+02
719             	3.00179021e+02
720             	3.00178993e+02
721             	3.00178839e+02
722             	3.00178762e+02
723             	3.00178722e+02
724             	3.00178693e+02
725             	3.00178677e+02
726             	3.00179027e+02
727             	3.00178915e+02
728             	3.00178911e+02
729             	3.00178967e+02
730             	3.00179047e+02
731             	3.00179133e+02
732             	3.00179191e+02
733             	3.00179246e+02
734             	3.00179128e+02
735             	3.00179301e+02
736             	3.00179361e+02
737             	3.00179308e+02
738             	3.00179346e+02
739             	3.00179353e+02
740             	3.00179380e+02
741             	3.00179364e+02
742             	3.00179378e+02
743             	3.00179396e+02
744             	3.00179422e+02
745             	3.00179456e+02
746             	3.00179476e+02
747             	3.00179518e+02
748             	3.00179564e+02
749             	3.00179611e+02
750             	3.00179644e+02
751             	3.00179877e+02
752             	3.00179739e+02
753             	3.00179651e+02
754             	3.00179526e+02
755             	3.00179568e+02
756             	3.00179601e+02
757             	3.00179547e+02
758             	3.00179551e+02
759             	3.00179607e+02
760             	3.00179636e+02
761             	3.00179515e+02
762             	3.00179513e+02
763             	3.00179691e+02
764             	3.00179758e+02
765             	3.00179780e+02
766             	3.00179773e+02
767             	3.00179744e+02
768             	3.00179697e+02
769             	3.00179652e+02
770             	3.00179698e+02
771             	3.00179538e+02
772             	3.00179513e+02
773             	3.00179428e+02
774             	3.00179440e+02
775             	3.00179496e+02
776             	3.00179505e+02
777             	3.00179547e+02
778             	3.00179602e+02
779             	3.00179652e+02
780             	3.00179687e+02
781             	3.00179703e+02
782             	3.00179696e+02
783             	3.00179675e+02
784             	3.00179684e+02
785             	3.00179702e+02
786             	3.00179724e+02
787             	3.00179753e+02
788             	3.00179798e+02
789             	3.00179853e+02
790             	3.00179895e+02
791             	3.00179954e+02
792             	3.00180012e+02
793             	3.00180048e+02
794             	3.00180073e+02
795             	3.00180109e+02
796             	3.00180061e+02
797             	3.00180082e+02
798             	3.00180078e+02
799             	3.00180068e+02
800             	3.00180045e+02
801             	3.00180055e+02
802             	3.00180051e+02
803             	3.00180039e+02
804             	3.00179990e+02
805             	3.00179945e+02
806             	3.00179903e+02
807             	3.00179853e+02
808             	3.00179830e+02
809             	3.00179820e+02
810             	3.00179905e+02
811             	3.00179714e+02
812             	3.00179617e+02
813             	3.00179574e+02
814             	3.00179556e+02
815             	3.00179577e+02
816             	3.00179599e+02
817             	3.00179606e+02
818             	3.00179592e+02
819             	3.00179396e+02
820             	3.00179533e+02
821             	3.00179557e+02
822             	3.00179571e+02
823             	3.00179551e+02
824             	3.00179473e+02
825             	3.00179435e+02
826             	3.00179400e+02
827             	3.00179369e+02
828             	3.00179414e+02
829             	3.00179508e+02
830             	3.00179455e+02
831             	3.00179404e+02
832             	3.00179428e+02
833             	3.00179488e+02
834             	3.00179562e+02
835             	3.00179538e+02
836             	3.00179482e+02
837             	3.00179626e+02
838             	3.00179652e+02
839             	3.00179692e+02
840             	3.00179755e+02
841             	3.00179800e+02
842             	3.00179849e+02
843             	3.00179914e+02
844             	3.00179965e+02
845             	3.00179983e+02
846             	3.00179995e+02
847             	3.00180021e+02
848             	3.00180068e+02
849             	3.00180091e+02
850             	3.00180093e+02
851             	3.00180118e+02
852             	3.00180155e+02
853             	3.00180207e+02
854             	3.00180144e+02
855             	3.00180099e+02
856             	3.00180082e+02
857             	3.00180071e+02
858             	3.00180059e+02
859             	3.00180033e+02
860             	3.00180042e+02
861             	3.00180043e+02
862             	3.00179941e+02
863             	3.00179979e+02
864             	3.00179936e+02
865             	3.00179949e+02
866             	3.00180014e+02
867             	3.00180050e+02
868             	3.00180078e+02
869             	3.00180084e+02
870             	3.00180047e+02
871             	3.00180024e+02
872             	3.00180007e+02
873             	3.00180002e+02
874             	3.00180081e+02
875             	3.00180032e+02
876             	3.00180049e+02
877             	3.00180014e+02
878             	3.00180033e+02
879             	3.00180048e+02
880             	3.00180035e+02
881             	3.00180023e+02
882             	3.00180023e+02
883             	3.00180045e+02
884             	3.00180023e+02
885             	3.00180051e+02
886             	3.00179955e+02
887             	3.00180023e+02
888             	3.00180040e+02
889             	3.00180015e+02
890             	3.00180017e+02
891             	3.00180004e+02
892             	3.00180008e+02
893             	3.00180020e+02
894             	3.00180042e+02
895             	3.00180074e+02
896             	3.00180115e+02
897             	3.00180154e+02
898             	3.00180194e+02
899             	3.00180228e+02
900             	3.00180259e+02
901             	3.00180316e+02
902             	3.00180329e+02
903             	3.00180286e+02
904             	3.00180272e+02
905             	3.00180268e+02
906             	3.00180267e+02
907             	3.00180265e+02
908             	3.00180265e+02
909             	3.00180267e+02
910             	3.00180267e+02
911             	3.00180262e+02
912             	3.00180255e+02
913             	3.00180230e+02
914             	3.00180254e+02
915             	3.00180266e+02
916             	3.00180244e+02
917             	3.00180259e+02
918             	3.00180266e+02
919             	3.00180267e+02
920             	3.00180262e+02
921             	3.00180253e+02
922             	3.00180243e+02
923             	3.00180262e+02
924             	3.00180210e+02
925             	3.00180174e+02
926             	3.00180175e+02
927             	3.00180147e+02
928             	3.00180109e+02
929             	3.00180081e+02
930             	3.00180066e+02
931             	3.00180058e+02
932             	3.00180045e+02
933             	3.00180037e+02