# Region        : cellZone pcb
# Cells         : 156
# Volume        : 1.88592060e-01
# Time          	volAverage(T)
1               	3.00129802e+02
2               	3.00380560e+02
3               	3.00706883e+02
4               	3.01081350e+02
5               	3.01477953e+02
6               	3.01890174e+02
7               	3.02313674e+02
8               	3.02745210e+02
9               	3.03181562e+02
10              	3.03618492e+02
11              	3.04058755e+02
12              	3.04500653e+02
13              	3.04948048e+02
14              	3.05391917e+02
15              	3.05818855e+02
16              	3.06206196e+02
17              	3.06605407e+02
18              	3.07029321e+02
19              	3.07435589e+02
20              	3.07806875e+02
21              	3.08138087e+02
22              	3.08432950e+02
23              	3.08724126e+02
24              	3.09037676e+02
25              	3.09354140e+02
26              	3.09645307e+02
27              	3.09927815e+02
28              	3.10211703e+02
29              	3.10471046e+02
30              	3.10707469e+02
31              	3.10925107e+02
32              	3.11130090e+02
33              	3.11314112e+02
34              	3.11450364e+02
35              	3.11582784e+02
36              	3.11709364e+02
37              	3.11820914e+02
38              	3.11918812e+02
39              	3.12007382e+02
40              	3.12087091e+02
41              	3.12148390e+02
42              	3.12230665e+02
43              	3.12355589e+02
44              	3.12506889e+02
45              	3.12662016e+02
46              	3.12784121e+02
47              	3.12906572e+02
48              	3.13026328e+02
49              	3.13127525e+02
50              	3.13223506e+02
51              	3.13283833e+02
52              	3.13367357e+02
53              	3.13432898e+02
54              	3.13455284e+02
55              	3.13445843e+02
56              	3.13467777e+02
57              	3.13565334e+02
58              	3.13692055e+02
59              	3.13816428e+02
60              	3.13910999e+02
61              	3.14002695e+02
62              	3.14054822e+02
63              	3.14083300e+02
64              	3.14126872e+02
65              	3.14169125e+02
66              	3.14190786e+02
67              	3.14190221e+02
68              	3.14186995e+02
69              	3.14204714e+02
70              	3.14195200e+02
71              	3.14157100e+02
72              	3.14182871e+02
73              	3.14283720e+02
74              	3.14371105e+02
75              	3.14410229e+02
76              	3.14450824e+02
77              	3.14475864e+02
78              	3.14520026e+02
79              	3.14542362e+02
80              	3.14554629e+02
81              	3.14563820e+02
82              	3.14565265e+02
83              	3.14553206e+02
84              	3.14542782e+02
85              	3.14524369e+02
86              	3.14496132e+02
87              	3.14466667e+02
88              	3.14479240e+02
89              	3.14552680e+02
90              	3.14649200e+02
91              	3.14716316e+02
92              	3.14761130e+02
93              	3.14804329e+02
94              	3.14844860e+02
95              	3.14872654e+02
96              	3.14860390e+02
97              	3.14874316e+02
98              	3.14864831e+02
99              	3.14829777e+02
100             	3.14783942e+02
101             	3.14742076e+02
102             	3.14642586e+02
103             	3.14567483e+02
104             	3.14599633e+02
105             	3.14640385e+02
106             	3.14678713e+02
107             	3.14716133e+02
108             	3.14753093e+02
109             	3.14780698e+02
110             	3.14781268e+02
111             	3.14780940e+02
112             	3.14784498e+02
113             	3.14780966e+02
114             	3.14740168e+02
115             	3.14684940e+02
116             	3.14618796e+02
117             	3.14621100e+02
118             	3.14679255e+02
119             	3.14737382e+02
120             	3.14806284e+02
121             	3.14854173e+02
122             	3.14901197e+02
123             	3.14945935e+02
124             	3.14995764e+02
125             	3.15015347e+02
126             	3.15025380e+02
127             	3.15017918e+02
128             	3.15006407e+02
129             	3.14984255e+02
130             	3.14938759e+02
131             	3.14896063e+02
132             	3.14862022e+02
133             	3.14789370e+02
134             	3.14748428e+02
135             	3.14789786e+02
136             	3.14846815e+02
137             	3.14884656e+02
138             	3.14908361e+02
139             	3.14928658e+02
140             	3.14944909e+02
141             	3.14929214e+02
142             	3.14935472e+02
143             	3.14930047e+02
144             	3.14913531e+02
145             	3.14888470e+02
146             	3.14855899e+02
147             	3.14822715e+02
148             	3.14760084e+02
149             	3.14727814e+02
150             	3.14741000e+02
151             	3.14709133e+02
152             	3.14687939e+02
153             	3.14744331e+02
154             	3.14827156e+02
155             	3.14899673e+02
156             	3.14944967e+02
157             	3.14988924e+02
158             	3.15012712e+02
159             	3.15059610e+02
160             	3.15077880e+02
161             	3.15108510e+02
162             	3.15104365e+02
163             	3.15076485e+02
164             	3.15032740e+02
165             	3.14977411e+02
166             	3.14930444e+02
167             	3.14892719e+02
168             	3.14851750e+02
169             	3.14821172e+02
170             	3.14805837e+02
171             	3.14808651e+02
172             	3.14870335e+02
173             	3.14937438e+02
174             	3.14973559e+02
175             	3.15016918e+02
176             	3.15064657e+02
177             	3.15109660e+02
178             	3.15153466e+02
179             	3.15181350e+02
180             	3.15185364e+02
181             	3.15195091e+02
182             	3.15172585e+02
183             	3.15145698e+02
184             	3.15116086e+02
185             	3.15075170e+02
186             	3.15031468e+02
187             	3.14995543e+02
188             	3.14980033e+02
189             	3.14974245e+02
190             	3.14986954e+02
191             	3.15006452e+02
192             	3.15007060e+02
193             	3.14994814e+02
194             	3.15013857e+02
195             	3.15040716e+02
196             	3.15071877e+02
197             	3.15100760e+02
198             	3.15129227e+02
199             	3.15150466e+02
200             	3.15162582e+02
201             	3.15167690e+02
202             	3.15176797e+02
203             	3.15180179e+02
204             	3.15184351e+02
205             	3.15183931e+02
206             	3.15181340e+02
207             	3.15172187e+02
208             	3.15157838e+02
209             	3.15138491e+02
210             	3.15130191e+02
211             	3.15120460e+02
212             	3.15089517e+02
213             	3.15069712e+02
214             	3.15051902e+02
215             	3.15047683e+02
216             	3.15037174e+02
217             	3.15020826e+02
218             	3.15011671e+02
219             	3.15005633e+02
220             	3.14997758e+02
221             	3.14995604e+02
222             	3.15003581e+02
223             	3.15036468e+02
224             	3.15075399e+02
225             	3.15085873e+02
226             	3.15084475e+02
227             	3.15084809e+02
228             	3.15092691e+02
229             	3.15095208e+02
230             	3.15095964e+02
231             	3.15093964e+02
232             	3.15090095e+02
233             	3.15085905e+02
234             	3.15079898e+02
235             	3.15072299e+02
236             	3.15062160e+02
237             	3.15026979e+02
238             	3.15010368e+02
239             	3.15000780e+02
240             	3.14984195e+02
241             	3.14968663e+02
242             	3.14951543e+02
243             	3.14945598e+02
244             	3.14938358e+02
245             	3.14928189e+02
246             	3.14934223e+02
247             	3.14949212e+02
248             	3.14969969e+02
249             	3.14978211e+02
250             	3.14982510e+02
251             	3.15001464e+02
252             	3.15024486e+02
253             	3.15047120e+02
254             	3.15049098e+02
255             	3.15054798e+02
256             	3.15052603e+02
257             	3.15047840e+02
258             	3.15042269e+02
259             	3.15030781e+02
260             	3.15017378e+02
261             	3.15001466e+02
262             	3.14988731e+02
263             	3.14977486e+02
264             	3.14967853e+02
265             	3.14968396e+02
266             	3.14963307e+02
267             	3.14967250e+02
268             	3.14975118e+02
269             	3.14987881e+02
270             	3.15000555e+02
271             	3.15008647e+02
272             	3.15015891e+02
273             	3.15034313e+02
274             	3.15046413e+02
275             	3.15051246e+02
276             	3.15063605e+02
277             	3.15078682e+02
278             	3.15082703e+02
279             	3.15089781e+02
280             	3.15096308e+02
281             	3.15102757e+02
282             	3.15102353e+02
283             	3.15095243e+02
284             	3.15076091e+02
285             	3.15072532e+02
286             	3.15069051e+02
287             	3.15063625e+02
288             	3.15061074e+02
289             	3.15058647e+02
290             	3.15054653e+02
291             	3.15052619e+02
292             	3.15051004e+02
293             	3.15051949e+02
294             	3.15050994e+02
295             	3.15048296e+02
296             	3.15042181e+02
297             	3.15037281e+02
298             	3.15032788e+02
299             	3.15026078e+02
300             	3.15019470e+02
301             	3.15014440e+02
302             	3.15010812e+02
303             	3.15010819e+02
304             	3.15020736e+02
305             	3.15023657e+02
306             	3.15029315e+02
307             	3.15031138e+02
308             	3.15031794e+02
309             	3.15029526e+02
310             	3.15032599e+02
311             	3.15034317e+02
312             	3.15036576e+02
313             	3.15038369e+02
314             	3.15041873e+02
315             	3.15046522e+02
316             	3.15046290e+02
317             	3.15044796e+02
318             	3.15044756e+02
319             	3.15042959e+02
320             	3.15039194e+02
321             	3.15032873e+02
322             	3.15032738e+02
323             	3.15034240e+02
324             	3.15035891e+02
325             	3.15036752e+02
326             	3.15037708e+02
327             	3.15038900e+02
328             	3.15039402e+02
329             	3.15038616e+02
330             	3.15036639e+02
331             	3.15034812e+02
332             	3.15031819e+02
333             	3.15028341e+02
334             	3.15026099e+02
335             	3.15024842e+02
336             	3.15024292e+02
337             	3.15023808e+02
338             	3.15022785e+02
339             	3.15022199e+02
340             	3.15026626e+02
341             	3.15026797e+02
342             	3.15027202e+02
343             	3.15027734e+02
344             	3.15030135e+02
345             	3.15033047e+02
346             	3.15036326e+02
347             	3.15038180e+02
348             	3.15039521e+02
349             	3.15041116e+02
350             	3.15041797e+02
351             	3.15041611e+02
352             	3.15040538e+02
353             	3.15039106e+02
354             	3.15038085e+02
355             	3.15036635e+02
356             	3.15035882e+02
357             	3.15035264e+02
358             	3.15034914e+02
359             	3.15031191e+02
360             	3.15030809e+02
361             	3.15031483e+02
362             	3.15031625e+02
363             	3.15030996e+02
364             	3.15030064e+02
365             	3.15029111e+02
366             	3.15029074e+02
367             	3.15029374e+02
368             	3.15030452e+02
369             	3.15031608e+02
370             	3.15035714e+02
371             	3.15040033e+02
372             	3.15042224e+02
373             	3.15043550e+02
374             	3.15044780e+02
375             	3.15045955e+02
376             	3.15045526e+02
377             	3.15041819e+02
378             	3.15040240e+02
379             	3.15040858e+02
380             	3.15041145e+02
381             	3.15040062e+02
382             	3.15038555e+02
383             	3.15037343e+02
384             	3.15036737e+02
385             	3.15036933e+02
386             	3.15038863e+02
387             	3.15046239e+02
388             	3.15051050e+02
389             	3.15052781e+02
390             	3.15052855e+02
391             	3.15053766e+02
392             	3.15055096e+02
393             	3.15050036e+02
394             	3.15048817e+02
395             	3.15048764e+02
396             	3.15049655e+02
397             	3.15049317e+02
398             	3.15048176e+02
399             	3.15046610e+02
400             	3.15044321e+02
401             	3.15042831e+02
402             	3.15042945e+02
403             	3.15047768e+02
404             	3.15053022e+02
405             	3.15054601e+02
406             	3.15055515e+02
407             	3.15056356e+02
408             	3.15058277e+02
409             	3.15061383e+02
410             	3.15063555e+02
411             	3.15062544e+02
412             	3.15055340e+02
413             	3.15045953e+02
414             	3.15042885e+02
415             	3.15042213e+02
416             	3.15040285e+02
417             	3.15036055e+02
418             	3.15038873e+02
419             	3.15046297e+02
420             	3.15056044e+02
421             	3.15055705e+02
422             	3.15054425e+02
423             	3.15055859e+02
424             	3.15055995e+02
425             	3.15047264e+02
426             	3.15039339e+02
427             	3.15038222e+02
428             	3.15039709e+02
429             	3.15037762e+02
430             	3.15035794e+02
431             	3.15042911e+02
432             	3.15059090e+02
433             	3.15068801e+02
434             	3.15065579e+02
435             	3.15064587e+02
436             	3.15062528e+02
437             	3.15053451e+02
438             	3.15044310e+02
439             	3.15033735e+02
440             	3.15032118e+02
441             	3.15028000e+02
442             	3.15023030e+02
443             	3.15027786e+02
444             	3.15039263e+02
445             	3.15056217e+02
446             	3.15060745e+02
447             	3.15058351e+02
448             	3.15063269e+02
449             	3.15062277e+02
450             	3.15048831e+02
451             	3.15045838e+02
452             	3.15040871e+02
453             	3.15041123e+02
454             	3.15043365e+02
455             	3.15039422e+02
456             	3.15044872e+02
457             	3.15066464e+02
458             	3.15062642e+02
459             	3.15055363e+02
460             	3.15049485e+02
461             	3.15050291e+02
462             	3.15044110e+02
463             	3.15032755e+02
464             	3.15032748e+02
465             	3.15039395e+02
466             	3.15042711e+02
467             	3.15041883e+02
468             	3.15042484e+02
469             	3.15046134e+02
470             	3.15050790e+02
471             	3.15058805e+02
472             	3.15060081e+02
473             	3.15061077e+02
474             	3.15062755e+02
475             	3.15065135e+02
476             	3.15066536e+02
477             	3.15061459e+02
478             	3.15059416e+02
479             	3.15059124e+02
480             	3.15058612e+02
481             	3.15056839e+02
482             	3.15054234e+02
483             	3.15051329e+02
484             	3.15048804e+02
485             	3.15046682e+02
486             	3.15047368e+02
487             	3.15046831e+02
488             	3.15046282e+02
489             	3.15047387e+02
490             	3.15051130e+02
491             	3.15057920e+02
492             	3.15060928e+02
493             	3.15062955e+02
494             	3.15064889e+02
495             	3.15068353e+02
496             	3.15070986e+02
497             	3.15072015e+02
498             	3.15065592e+02
499             	3.15062419e+02
500             	3.15060915e+02
501             	3.15059183e+02
502             	3.15052622e+02
503             	3.15047965e+02
504             	3.15044008e+02
505             	3.15040000e+02
506             	3.15036111e+02
507             	3.15033405e+02
508             	3.15030739e+02
509             	3.15028803e+02
510             	3.15027714e+02
511             	3.15031420e+02
512             	3.15034373e+02
513             	3.15040307e+02
514             	3.15043097e+02
515             	3.15045712e+02
516             	3.15048113e+02
517             	3.15050738e+02
518             	3.15053691e+02
519             	3.15056682e+02
520             	3.15057557e+02
521             	3.15058904e+02
522             	3.15059097e+02
523             	3.15057878e+02
524             	3.15055260e+02
525             	3.15053145e+02
526             	3.15050552e+02
527             	3.15041593e+02
528             	3.15037825e+02
529             	3.15037515e+02
530             	3.15037294e+02
531             	3.15036521e+02
532             	3.15035447e+02
533             	3.15042202e+02
534             	3.15052291e+02
535             	3.15055068e+02
536             	3.15058493e+02
537             	3.15062419e+02
538             	3.15067148e+02
539             	3.15069874e+02
540             	3.15068644e+02
541             	3.15063162e+02
542             	3.15063677e+02
543             	3.15065554e+02
544             	3.15065324e+02
545             	3.15061417e+02
546             	3.15054865e+02
547             	3.15048598e+02
548             	3.15045655e+02
549             	3.15050625e+02
550             	3.15058060e+02
551             	3.15065549e+02
552             	3.15066863e+02
553             	3.15068484e+02
554             	3.15070291e+02
555             	3.15066776e+02
556             	3.15063573e+02
557             	3.15054843e+02
558             	3.15053143e+02
559             	3.15053036e+02
560             	3.15050376e+02
561             	3.15046796e+02
562             	3.15042561e+02
563             	3.15049954e+02
564             	3.15058912e+02
565             	3.15058462e+02
566             	3.15056454e+02
567             	3.15055994e+02
568             	3.15056710e+02
569             	3.15059133e+02
570             	3.15061384e+02
571             	3.15063834e+02
572             	3.15056505e+02
573             	3.15056042e+02
574             	3.15054146e+02
575             	3.15053045e+02
576             	3.15050971e+02
577             	3.15047956e+02
578             	3.15044986e+02
579             	3.15042186e+02
580             	3.15039591e+02
581             	3.15038943e+02
582             	3.15050596e+02
583             	3.15054710e+02
584             	3.15056835e+02
585             	3.15059336e+02
586             	3.15064348e+02
587             	3.15070373e+02
588             	3.15073891e+02
589             	3.15064586e+02
590             	3.15064758e+02
591             	3.15063509e+02
592             	3.15061476e+02
593             	3.15055209e+02
594             	3.15048455e+02
595             	3.15041311e+02
596             	3.15034564e+02
597             	3.15029563e+02
598             	3.15045651e+02
599             	3.15049122e+02
600             	3.15045574e+02
601             	3.15046487e+02
602             	3.15051542e+02
603             	3.15057584e+02
604             	3.15061757e+02
605             	3.15061215e+02
606             	3.15054458e+02
607             	3.15055048e+02
608             	3.15056488e+02
609             	3.15056575e+02
610             	3.15054175e+02
611             	3.15049610e+02
612             	3.15040555e+02
613             	3.15033392e+02
614             	3.15027587e+02
615             	3.15038787e+02
616             	3.15042537e+02
617             	3.15043501e+02
618             	3.15045832e+02
619             	3.15050831e+02
620             	3.15056263e+02
621             	3.15061823e+02
622             	3.15067273e+02
623             	3.15072522e+02
624             	3.15076268e+02
625             	3.15079174e+02
626             	3.15080757e+02
627             	3.15079546e+02
628             	3.15070627e+02
629             	3.15066844e+02
630             	3.15064306e+02
631             	3.15059129e+02
632             	3.15054961e+02
633             	3.15051100e+02
634             	3.15047331e+02
635             	3.15043642e+02
636             	3.15040182e+02
637             	3.15036505e+02
638             	3.15033621e+02
639             	3.15032458e+02
640             	3.15032754e+02
641             	3.15034160e+02
642             	3.15045664e+02
643             	3.15049902e+02
644             	3.15052781e+02
645             	3.15055037e+02
646             	3.15058962e+02
647             	3.15063131e+02
648             	3.15066804e+02
649             	3.15069553e+02
650             	3.15071236e+02
651             	3.15070062e+02
652             	3.15068025e+02
653             	3.15064570e+02
654             	3.15057514e+02
655             	3.15044016e+02
656             	3.15038352e+02
657             	3.15037588e+02
658             	3.15036468e+02
659             	3.15034910e+02
660             	3.15034333e+02
661             	3.15036319e+02
662             	3.15045758e+02
663             	3.15057416e+02
664             	3.15058471e+02
665             	3.15058885e+02
666             	3.15059112e+02
667             	3.15060729e+02
668             	3.15062239e+02
669             	3.15062904e+02
670             	3.15053793e+02
671             	3.15050281e+02
672             	3.15048979e+02
673             	3.15045236e+02
674             	3.15038417e+02
675             	3.15031236e+02
676             	3.15025537e+02
677             	3.15021650e+02
678             	3.15020128e+02
679             	3.15020773e+02
680             	3.15023575e+02
681             	3.15025240e+02
682             	3.15027437e+02
683             	3.15029322e+02
684             	3.15031282e+02
685             	3.15032524e+02
686             	3.15033039e+02
687             	3.15032812e+02
688             	3.15032125e+02
689             	3.15032624e+02
690             	3.15032665e+02
691             	3.15034019e+02
692             	3.15041393e+02
693             	3.15043267e+02
694             	3.15044238e+02
695             	3.15046565e+02
696             	3.15050680e+02
697             	3.15055471e+02
698             	3.15059001e+02
699             	3.15063610e+02
700             	3.15064745e+02
701             	3.15057807e+02
702             	3.15046469e+02
703             	3.15044156e+02
704             	3.15045563e+02
705             	3.15045502e+02
706             	3.15043040e+02
707             	3.15043947e+02
708             	3.15054343e+02
709             	3.15062699e+02
710             	3.15062848e+02
711             	3.15063830e+02
712             	3.15065710e+02
713             	3.15069515e+02
714             	3.15063851e+02
715             	3.15062992e+02
716             	3.15063206e+02
717             	3.15064806e+02
718             	3.15064031e+02
719             	3.15060897e+02
720             	3.15054590e+02
721             	3.15048138e+02
722             	3.15042030e+02
723             	3.15034796e+02
724             	3.15029182e+02
725             	3.15032607e+02
726             	3.15037470e+02
727             	3.15039799e+02
728             	3.15043226e+02
729             	3.15045867e+02
730             	3.15049526e+02
731             	3.15054005e+02
732             	3.15058012e+02
733             	3.15060985e+02
734             	3.15059891e+02
735             	3.15059527e+02
736             	3.15055606e+02
737             	3.15054334e+02
738             	3.15053064e+02
739             	3.15050701e+02
740             	3.15047035e+02
741             	3.15043246e+02
742             	3.15040623e+02
743             	3.15038888e+02
744             	3.15036632e+02
745             	3.15034992e+02
746             	3.15033786e+02
747             	3.15035174e+02
748             	3.15043355e+02
749             	3.15045874e+02
750             	3.15047686e+02
751             	3.15048530e+02
752             	3.15050471e+02
753             	3.15052534e+02
754             	3.15053220e+02
755             	3.15047862e+02
756             	3.15039621e+02
757             	3.15037486e+02
758             	3.15037201e+02
759             	3.15035602e+02
760             	3.15033608e+02
761             	3.15041637e+02
762             	3.15041713e+02
763             	3.15040847e+02
764             	3.15039106e+02
765             	3.15044810e+02
766             	3.15047334e+02
767             	3.15050476e+02
768             	3.15052979e+02
769             	3.15055455e+02
770             	3.15056818e+02
771             	3.15057195e+02
772             	3.15056878e+02
773             	3.15056621e+02
774             	3.15056311e+02
775             	3.15056150e+02
776             	3.15054817e+02
777             	3.15053449e+02
778             	3.15045200e+02
779             	3.15042244e+02
780             	3.15042625e+02
781             	3.15042965e+02
782             	3.15041525e+02
783             	3.15038998e+02
784             	3.15035954e+02
785             	3.15031815e+02
786             	3.15028754e+02
787             	3.15028579e+02
788             	3.15029134e+02
789             	3.15031234e+02
790             	3.15037155e+02
791             	3.15040766e+02
792             	3.15049428e+02
793             	3.15053270e+02
794             	3.15056183e+02
795             	3.15057327e+02
796             	3.15058522e+02
797             	3.15059031e+02
798             	3.15060579e+02
799             	3.15059932e+02
800             	3.15057639e+02
801             	3.15052686e+02
802             	3.15049144e+02
803             	3.15046004e+02
804             	3.15041569e+02
805             	3.15036939e+02
806             	3.15032792e+02
807             	3.15028560e+02
808             	3.15025549e+02
809             	3.15020944e+02
810             	3.15019700e+02
811             	3.15020665e+02
812             	3.15028856e+02
813             	3.15033583e+02
814             	3.15038269e+02
815             	3.15041818e+02
816             	3.15046894e+02
817             	3.15051403e+02
818             	3.15056389e+02
819             	3.15060217e+02
820             	3.15063905e+02
821             	3.15067255e+02
822             	3.15066304e+02
823             	3.15065713e+02
824             	3.15061878e+02
825             	3.15054496e+02
826             	3.15051072e+02
827             	3.15049103e+02
828             	3.15046243e+02
829             	3.15042198e+02
830             	3.15038394e+02
831             	3.15040170e+02
832             	3.15049592e+02
833             	3.15049966e+02
834             	3.15050271e+02
835             	3.15048926e+02
836             	3.15050362e+02
837             	3.15051482e+02
838             	3.15053677e+02
839             	3.15055322e+02
840             	3.15056534e+02
841             	3.15056492e+02
842             	3.15056234e+02
843             	3.15056288e+02
844             	3.15057161e+02
845             	3.15058656e+02
846             	3.15058434e+02
847             	3.15058293e+02
848             	3.15057017e+02
849             	3.15054729e+02
850             	3.15045413e+02
851             	3.15043887e+02
852             	3.15044027e+02
853             	3.15043269e+02
854             	3.15040348e+02
855             	3.15036648e+02
856             	3.15032641e+02
857             	3.15029971e+02
858             	3.15028104e+02
859             	3.15030602e+02
860             	3.15038950e+02
861             	3.15049693e+02
862             	3.15052787e+02
863             	3.15056101e+02
864             	3.15058103e+02
865             	3.15061035e+02
866             	3.15057578e+02
867             	3.15051876e+02
868             	3.15048656e+02
869             	3.15048932e+02
870             	3.15047801e+02
871             	3.15046497e+02
872             	3.15042059e+02
873             	3.15039575e+02
874             	3.15036803e+02
875             	3.15035148e+02
876             	3.15034124e+02
877             	3.15034305e+02
878             	3.15035877e+02
879             	3.15038990e+02
880             	3.15051488e+02
881             	3.15057196e+02
882             	3.15061380e+02
883             	3.15065229e+02
884             	3.15069911e+02
885             	3.15073725e+02
886             	3.15077924e+02
887             	3.15075941e+02
888             	3.15065863e+02
889             	3.15062866e+02
890             	3.15049501e+02
891             	3.15043330e+02
892             	3.15040161e+02
893             	3.15034494e+02
894             	3.15026881e+02
895             	3.15022491e+02
896             	3.15020577e+02
897             	3.15031559e+02
898             	3.15047032e+02
899             	3.15049935e+02
900             	3.15053444e+02
901             	3.15061498e+02
902             	3.15070365e+02
903             	3.15071761e+02
904             	3.15068476e+02
905             	3.15060801e+02
906             	3.15059208e+02
907             	3.15058939e+02
908             	3.15055448e+02
909             	3.15048388e+02
910             	3.15039884e+02
911             	3.15049214e+02
912             	3.15064963e+02
913             	3.15075470e+02
914             	3.15070945e+02
915             	3.15066593e+02
916             	3.15061298e+02
917             	3.15055762e+02
918             	3.15040043e+02
919             	3.15042040e+02
920             	3.15048139e+02
921             	3.15052652e+02
922             	3.15051107e+02
923             	3.15044042e+02
924             	3.15044708e+02
925             	3.15051401e+02
926             	3.15058816e+02
927             	3.15056372e+02
928             	3.15055247e+02
929             	3.15057781e+02
930             	3.15059300e+02
931             	3.15057901e+02
932             	3.15055438e+02
933             	3.15055129e+02