# Region        : cellZone fluid
# Cells         : 9024
# Volume        : 1.72547714e+01
# Time          	volAverage(T)
1               	3.00000197e+02
2               	3.00000374e+02
3               	3.00001633e+02
4               	3.00003775e+02
5               	3.00004757e+02
6               	3.00005666e+02
7               	3.00006716e+02
8               	3.00008310e+02
9               	3.00010297e+02
10              	3.00012427e+02
11              	3.00014628e+02
12              	3.00017198e+02
13              	3.00020440e+02
14              	3.00023466e+02
15              	3.00026682e+02
16              	3.00030224e+02
17              	3.00033500e+02
18              	3.00036391e+02
19              	3.00039600e+02
20              	3.00042796e+02
21              	3.00047457e+02
22              	3.00051125e+02
23              	3.00056433e+02
24              	3.00061243e+02
25              	3.00065297e+02
26              	3.00068785e+02
27              	3.00072435e+02
28              	3.00075687e+02
29              	3.00079580e+02
30              	3.00083680e+02
31              	3.00088043e+02
32              	3.00093048e+02
33              	3.00096896e+02
34              	3.00103777e+02
35              	3.00109391e+02
36              	3.00114367e+02
37              	3.00119959e+02
38              	3.00124683e+02
39              	3.00130930e+02
40              	3.00137334e+02
41              	3.00141385e+02
42              	3.00145775e+02
43              	3.00151624e+02
44              	3.00158460e+02
45              	3.00163159e+02
46              	3.00168650e+02
47              	3.00173337e+02
48              	3.00178084e+02
49              	3.00182249e+02
50              	3.00188297e+02
51              	3.00196260e+02
52              	3.00204678e+02
53              	3.00213069e+02
54              	3.00219096e+02
55              	3.00223941e+02
56              	3.00231250e+02
57              	3.00237340e+02
58              	3.00242078e+02
59              	3.00245988e+02
60              	3.00251552e+02
61              	3.00255572e+02
62              	3.00260193e+02
63              	3.00266145e+02
64              	3.00274911e+02
65              	3.00279984e+02
66              	3.00285876e+02
67              	3.00289077e+02
68              	3.00294012e+02
69              	3.00297061e+02
70              	3.00302442e+02
71              	3.00304551e+02
72              	3.00309172e+02
73              	3.00313662e+02
74              	3.00318650e+02
75              	3.00324062e+02
76              	3.00328725e+02
77              	3.00333620e+02
78              	3.00337371e+02
79              	3.00342608e+02
80              	3.00345600e+02
81              	3.00348621e+02
82              	3.00351536e+02
83              	3.00355630e+02
84              	3.00363241e+02
85              	3.00365780e+02
86              	3.00368628e+02
87              	3.00372030e+02
88              	3.00375302e+02
89              	3.00379107e+02
90              	3.00382433e+02
91              	3.00387244e+02
92              	3.00390295e+02
93              	3.00394832e+02
94              	3.00397732e+02
95              	3.00401384e+02
96              	3.00403104e+02
97              	3.00405125e+02
98              	3.00408401e+02
99              	3.00412844e+02
100             	3.00417096e+02
101             	3.00423714e+02
102             	3.00429339e+02
103             	3.00433262e+02
104             	3.00437897e+02
105             	3.00442475e+02
106             	3.00447180e+02
107             	3.00451818e+02
108             	3.00457531e+02
109             	3.00462425e+02
110             	3.00466839e+02
111             	3.00474135e+02
112             	3.00480562e+02
113             	3.00486538e+02
114             	3.00492636e+02
115             	3.00497860e+02
116             	3.00503326e+02
117             	3.00506669e+02
118             	3.00510160e+02
119             	3.00515455e+02
120             	3.00522071e+02
121             	3.00524368e+02
122             	3.00528676e+02
123             	3.00532908e+02
124             	3.00536928e+02
125             	3.00541616e+02
126             	3.00545905e+02
127             	3.00551804e+02
128             	3.00556539e+02
129             	3.00559006e+02
130             	3.00563123e+02
131             	3.00567649e+02
132             	3.00570315e+02
133             	3.00573286e+02
134             	3.00575509e+02
135             	3.00578071e+02
136             	3.00580274e+02
137             	3.00582206e+02
138             	3.00583675e+02
139             	3.00584737e+02
140             	3.00586207e+02
141             	3.00588101e+02
142             	3.00589160e+02
143             	3.00590881e+02
144             	3.00590972e+02
145             	3.00591508e+02
146             	3.00592353e+02
147             	3.00593291e+02
148             	3.00594030e+02
149             	3.00594809e+02
150             	3.00596037e+02
151             	3.00597495e+02
152             	3.00598993e+02
153             	3.00600396e+02
154             	3.00602694e+02
155             	3.00604199e+02
156             	3.00604957e+02
157             	3.00606822e+02
158             	3.00607466e+02
159             	3.00609416e+02
160             	3.00611514e+02
161             	3.00613333e+02
162             	3.00614887e+02
163             	3.00615985e+02
164             	3.00617953e+02
165             	3.00619451e+02
166             	3.00621940e+02
167             	3.00623291e+02
168             	3.00625682e+02
169             	3.00627574e+02
170             	3.00630407e+02
171             	3.00632090e+02
172             	3.00633955e+02
173             	3.00636138e+02
174             	3.00638794e+02
175             	3.00641152e+02
176             	3.00642505e+02
177             	3.00644582e+02
178             	3.00646967e+02
179             	3.00649492e+02
180             	3.00651859e+02
181             	3.00654074e+02
182             	3.00656687e+02
183             	3.00660135e+02
184             	3.00662691e+02
185             	3.00665802e+02
186             	3.00667655e+02
187             	3.00669944e+02
188             	3.00672453e+02
189             	3.00674905e+02
190             	3.00676768e+02
191             	3.00677967e+02
192             	3.00679485e+02
193             	3.00681542e+02
194             	3.00684327e+02
195             	3.00685441e+02
196             	3.00688060e+02
197             	3.00690188e+02
198             	3.00691706e+02
199             	3.00693126e+02
200             	3.00694444e+02
201             	3.00696251e+02
202             	3.00698116e+02
203             	3.00700006e+02
204             	3.00702402e+02
205             	3.00703348e+02
206             	3.00703385e+02
207             	3.00705212e+02
208             	3.00706549e+02
209             	3.00707392e+02
210             	3.00708050e+02
211             	3.00709095e+02
212             	3.00710541e+02
213             	3.00711887e+02
214             	3.00712770e+02
215             	3.00713700e+02
216             	3.00714908e+02
217             	3.00716008e+02
218             	3.00716823e+02
219             	3.00717827e+02
220             	3.00718700e+02
221             	3.00720612e+02
222             	3.00721327e+02
223             	3.00722080e+02
224             	3.00722885e+02
225             	3.00724184e+02
226             	3.00725537e+02
227             	3.00727017e+02
228             	3.00728287e+02
229             	3.00729574e+02
230             	3.00731047e+02
231             	3.00732208e+02
232             	3.00731964e+02
233             	3.00733561e+02
234             	3.00734885e+02
235             	3.00736246e+02
236             	3.00737879e+02
237             	3.00739074e+02
238             	3.00741591e+02
239             	3.00742877e+02
240             	3.00744394e+02
241             	3.00745265e+02
242             	3.00745642e+02
243             	3.00746448e+02
244             	3.00747961e+02
245             	3.00749585e+02
246             	3.00751033e+02
247             	3.00752600e+02
248             	3.00754176e+02
249             	3.00755703e+02
250             	3.00757247e+02
251             	3.00757427e+02
252             	3.00758719e+02
253             	3.00760040e+02
254             	3.00761434e+02
255             	3.00762717e+02
256             	3.00763609e+02
257             	3.00764427e+02
258             	3.00765609e+02
259             	3.00766812e+02
260             	3.00767619e+02
261             	3.00768213e+02
262             	3.00768785e+02
263             	3.00769546e+02
264             	3.00770320e+02
265             	3.00770639e+02
266             	3.00771374e+02
267             	3.00770672e+02
268             	3.00770452e+02
269             	3.00770744e+02
270             	3.00770676e+02
271             	3.00770647e+02
272             	3.00771166e+02
273             	3.00771851e+02
274             	3.00772505e+02
275             	3.00773242e+02
276             	3.00773750e+02
277             	3.00774398e+02
278             	3.00775349e+02
279             	3.00775229e+02
280             	3.00776441e+02
281             	3.00777701e+02
282             	3.00779002e+02
283             	3.00780168e+02
284             	3.00781083e+02
285             	3.00781755e+02
286             	3.00782730e+02
287             	3.00783913e+02
288             	3.00784833e+02
289             	3.00785649e+02
290             	3.00786164e+02
291             	3.00786968e+02
292             	3.00787883e+02
293             	3.00788583e+02
294             	3.00789225e+02
295             	3.00789936e+02
296             	3.00790548e+02
297             	3.00791368e+02
298             	3.00791826e+02
299             	3.00792089e+02
300             	3.00792732e+02
301             	3.00793546e+02
302             	3.00794103e+02
303             	3.00794157e+02
304             	3.00794177e+02
305             	3.00794489e+02
306             	3.00795132e+02
307             	3.00795385e+02
308             	3.00795433e+02
309             	3.00795689e+02
310             	3.00796149e+02
311             	3.00796693e+02
312             	3.00796885e+02
313             	3.00797011e+02
314             	3.00797340e+02
315             	3.00797905e+02
316             	3.00798433e+02
317             	3.00798666e+02
318             	3.00799010e+02
319             	3.00799790e+02
320             	3.00800739e+02
321             	3.00801318e+02
322             	3.00801604e+02
323             	3.00802086e+02
324             	3.00802900e+02
325             	3.00803779e+02
326             	3.00803970e+02
327             	3.00804439e+02
328             	3.00805024e+02
329             	3.00805870e+02
330             	3.00806448e+02
331             	3.00806760e+02
332             	3.00806881e+02
333             	3.00807318e+02
334             	3.00808053e+02
335             	3.00808534e+02
336             	3.00808596e+02
337             	3.00808922e+02
338             	3.00809000e+02
339             	3.00809274e+02
340             	3.00809382e+02
341             	3.00809564e+02
342             	3.00809846e+02
343             	3.00810363e+02
344             	3.00810985e+02
345             	3.00811282e+02
346             	3.00811338e+02
347             	3.00811762e+02
348             	3.00812323e+02
349             	3.00812780e+02
350             	3.00812868e+02
351             	3.00813222e+02
352             	3.00813759e+02
353             	3.00814391e+02
354             	3.00814869e+02
355             	3.00814990e+02
356             	3.00815194e+02
357             	3.00815777e+02
358             	3.00816272e+02
359             	3.00816439e+02
360             	3.00816677e+02
361             	3.00816978e+02
362             	3.00817610e+02
363             	3.00817914e+02
364             	3.00817911e+02
365             	3.00817927e+02
366             	3.00818374e+02
367             	3.00818952e+02
368             	3.00819250e+02
369             	3.00819547e+02
370             	3.00819816e+02
371             	3.00820384e+02
372             	3.00821040e+02
373             	3.00821448e+02
374             	3.00821812e+02
375             	3.00822265e+02
376             	3.00823035e+02
377             	3.00823437e+02
378             	3.00823692e+02
379             	3.00823402e+02
380             	3.00823926e+02
381             	3.00824678e+02
382             	3.00824947e+02
383             	3.00825092e+02
384             	3.00825354e+02
385             	3.00825879e+02
386             	3.00826415e+02
387             	3.00826641e+02
388             	3.00826629e+02
389             	3.00826816e+02
390             	3.00827582e+02
391             	3.00827840e+02
392             	3.00828272e+02
393             	3.00827635e+02
394             	3.00827702e+02
395             	3.00828036e+02
396             	3.00828215e+02
397             	3.00828198e+02
398             	3.00828424e+02
399             	3.00828829e+02
400             	3.00828779e+02
401             	3.00828542e+02
402             	3.00829054e+02
403             	3.00829631e+02
404             	3.00830156e+02
405             	3.00830326e+02
406             	3.00830030e+02
407             	3.00830131e+02
408             	3.00831086e+02
409             	3.00830421e+02
410             	3.00830157e+02
411             	3.00830058e+02
412             	3.00830174e+02
413             	3.00830564e+02
414             	3.00831246e+02
415             	3.00831791e+02
416             	3.00831792e+02
417             	3.00832248e+02
418             	3.00833837e+02
419             	3.00835018e+02
420             	3.00835444e+02
421             	3.00835336e+02
422             	3.00835809e+02
423             	3.00836248e+02
424             	3.00836700e+02
425             	3.00837065e+02
426             	3.00837170e+02
427             	3.00837457e+02
428             	3.00838177e+02
429             	3.00838318e+02
430             	3.00838280e+02
431             	3.00838505e+02
432             	3.00838924e+02
433             	3.00839217e+02
434             	3.00839744e+02
435             	3.00838966e+02
436             	3.00838837e+02
437             	3.00839079e+02
438             	3.00839296e+02
439             	3.00839177e+02
440             	3.00838963e+02
441             	3.00839097e+02
442             	3.00839754e+02
443             	3.00840093e+02
444             	3.00839959e+02
445             	3.00839625e+02
446             	3.00839599e+02
447             	3.00839674e+02
448             	3.00839474e+02
449             	3.00839242e+02
450             	3.00839347e+02
451             	3.00839668e+02
452             	3.00839895e+02
453             	3.00839745e+02
454             	3.00839624e+02
455             	3.00839871e+02
456             	3.00840295e+02
457             	3.00840405e+02
458             	3.00840270e+02
459             	3.00840275e+02
460             	3.00840755e+02
461             	3.00841216e+02
462             	3.00841408e+02
463             	3.00841605e+02
464             	3.00842026e+02
465             	3.00842692e+02
466             	3.00843433e+02
467             	3.00843518e+02
468             	3.00843547e+02
469             	3.00843961e+02
470             	3.00844458e+02
471             	3.00844666e+02
472             	3.00844751e+02
473             	3.00844850e+02
474             	3.00845250e+02
475             	3.00845827e+02
476             	3.00845984e+02
477             	3.00845960e+02
478             	3.00846258e+02
479             	3.00846719e+02
480             	3.00846983e+02
481             	3.00847019e+02
482             	3.00846900e+02
483             	3.00847070e+02
484             	3.00847493e+02
485             	3.00847827e+02
486             	3.00847657e+02
487             	3.00847748e+02
488             	3.00848181e+02
489             	3.00848619e+02
490             	3.00848565e+02
491             	3.00848384e+02
492             	3.00848296e+02
493             	3.00848442e+02
494             	3.00848626e+02
495             	3.00848268e+02
496             	3.00847802e+02
497             	3.00847570e+02
498             	3.00847552e+02
499             	3.00847302e+02
500             	3.00846827e+02
501             	3.00846356e+02
502             	3.00846285e+02
503             	3.00846418e+02
504             	3.00846262e+02
505             	3.00845877e+02
506             	3.00845587e+02
507             	3.00845662e+02
508             	3.00845704e+02
509             	3.00845493e+02
510             	3.00845341e+02
511             	3.00845437e+02
512             	3.00845780e+02
513             	3.00846119e+02
514             	3.00846041e+02
515             	3.00845998e+02
516             	3.00846405e+02
517             	3.00846903e+02
518             	3.00847152e+02
519             	3.00847268e+02
520             	3.00847289e+02
521             	3.00847600e+02
522             	3.00848223e+02
523             	3.00848406e+02
524             	3.00848403e+02
525             	3.00848494e+02
526             	3.00848930e+02
527             	3.00849105e+02
528             	3.00848922e+02
529             	3.00848701e+02
530             	3.00848810e+02
531             	3.00848970e+02
532             	3.00849388e+02
533             	3.00849073e+02
534             	3.00849041e+02
535             	3.00849250e+02
536             	3.00849355e+02
537             	3.00849115e+02
538             	3.00848837e+02
539             	3.00848676e+02
540             	3.00848864e+02
541             	3.00849008e+02
542             	3.00848769e+02
543             	3.00848460e+02
544             	3.00848603e+02
545             	3.00848898e+02
546             	3.00848931e+02
547             	3.00848797e+02
548             	3.00848764e+02
549             	3.00849046e+02
550             	3.00849395e+02
551             	3.00849491e+02
552             	3.00849385e+02
553             	3.00849572e+02
554             	3.00850152e+02
555             	3.00850587e+02
556             	3.00850679e+02
557             	3.00850850e+02
558             	3.00851238e+02
559             	3.00851861e+02
560             	3.00852096e+02
561             	3.00851754e+02
562             	3.00851915e+02
563             	3.00852430e+02
564             	3.00852891e+02
565             	3.00853011e+02
566             	3.00852844e+02
567             	3.00852735e+02
568             	3.00852872e+02
569             	3.00852988e+02
570             	3.00852705e+02
571             	3.00852422e+02
572             	3.00852750e+02
573             	3.00852586e+02
574             	3.00852377e+02
575             	3.00852077e+02
576             	3.00851660e+02
577             	3.00851714e+02
578             	3.00851995e+02
579             	3.00851881e+02
580             	3.00851531e+02
581             	3.00851460e+02
582             	3.00851616e+02
583             	3.00851758e+02
584             	3.00851728e+02
585             	3.00851407e+02
586             	3.00851244e+02
587             	3.00851505e+02
588             	3.00851532e+02
589             	3.00851238e+02
590             	3.00851194e+02
591             	3.00851403e+02
592             	3.00851849e+02
593             	3.00852073e+02
594             	3.00852091e+02
595             	3.00852253e+02
596             	3.00852661e+02
597             	3.00852751e+02
598             	3.00852900e+02
599             	3.00853052e+02
600             	3.00853262e+02
601             	3.00853643e+02
602             	3.00853814e+02
603             	3.00853796e+02
604             	3.00853698e+02
605             	3.00853891e+02
606             	3.00854317e+02
607             	3.00854386e+02
608             	3.00854143e+02
609             	3.00854134e+02
610             	3.00854321e+02
611             	3.00854400e+02
612             	3.00854406e+02
613             	3.00854241e+02
614             	3.00854116e+02
615             	3.00854413e+02
616             	3.00854557e+02
617             	3.00854470e+02
618             	3.00853937e+02
619             	3.00853796e+02
620             	3.00853890e+02
621             	3.00853924e+02
622             	3.00853669e+02
623             	3.00853478e+02
624             	3.00853745e+02
625             	3.00853982e+02
626             	3.00853843e+02
627             	3.00853560e+02
628             	3.00853714e+02
629             	3.00854014e+02
630             	3.00854314e+02
631             	3.00854044e+02
632             	3.00853743e+02
633             	3.00853841e+02
634             	3.00853935e+02
635             	3.00853830e+02
636             	3.00853555e+02
637             	3.00853307e+02
638             	3.00853433e+02
639             	3.00853756e+02
640             	3.00853792e+02
641             	3.00853481e+02
642             	3.00853367e+02
643             	3.00853634e+02
644             	3.00853744e+02
645             	3.00853432e+02
646             	3.00853149e+02
647             	3.00853128e+02
648             	3.00853390e+02
649             	3.00853594e+02
650             	3.00853472e+02
651             	3.00853243e+02
652             	3.00853482e+02
653             	3.00853678e+02
654             	3.00853642e+02
655             	3.00853563e+02
656             	3.00853590e+02
657             	3.00853901e+02
658             	3.00854272e+02
659             	3.00854259e+02
660             	3.00854212e+02
661             	3.00854473e+02
662             	3.00854834e+02
663             	3.00854941e+02
664             	3.00854796e+02
665             	3.00854670e+02
666             	3.00854859e+02
667             	3.00855278e+02
668             	3.00855270e+02
669             	3.00854914e+02
670             	3.00854771e+02
671             	3.00855102e+02
672             	3.00854932e+02
673             	3.00854706e+02
674             	3.00854293e+02
675             	3.00854215e+02
676             	3.00854335e+02
677             	3.00854526e+02
678             	3.00854594e+02
679             	3.00854596e+02
680             	3.00854893e+02
681             	3.00855256e+02
682             	3.00855394e+02
683             	3.00855199e+02
684             	3.00854899e+02
685             	3.00854834e+02
686             	3.00855042e+02
687             	3.00854855e+02
688             	3.00854681e+02
689             	3.00854790e+02
690             	3.00855022e+02
691             	3.00855314e+02
692             	3.00855469e+02
693             	3.00855404e+02
694             	3.00855606e+02
695             	3.00856009e+02
696             	3.00856176e+02
697             	3.00856051e+02
698             	3.00855901e+02
699             	3.00855980e+02
700             	3.00856185e+02
701             	3.00856179e+02
702             	3.00856059e+02
703             	3.00856056e+02
704             	3.00856295e+02
705             	3.00856344e+02
706             	3.00856559e+02
707             	3.00856140e+02
708             	3.00856719e+02
709             	3.00856503e+02
710             	3.00856430e+02
711             	3.00856304e+02
712             	3.00856227e+02
713             	3.00856461e+02
714             	3.00856794e+02
715             	3.00856506e+02
716             	3.00855776e+02
717             	3.00856200e+02
718             	3.00856592e+02
719             	3.00856785e+02
720             	3.00856447e+02
721             	3.00856091e+02
722             	3.00855994e+02
723             	3.00856466e+02
724             	3.00856440e+02
725             	3.00856088e+02
726             	3.00855851e+02
727             	3.00856127e+02
728             	3.00856263e+02
729             	3.00856143e+02
730             	3.00856056e+02
731             	3.00856103e+02
732             	3.00856514e+02
733             	3.00856770e+02
734             	3.00856572e+02
735             	3.00856289e+02
736             	3.00856132e+02
737             	3.00856165e+02
738             	3.00856075e+02
739             	3.00855922e+02
740             	3.00855662e+02
741             	3.00855820e+02
742             	3.00856098e+02
743             	3.00856176e+02
744             	3.00856164e+02
745             	3.00856048e+02
746             	3.00856249e+02
747             	3.00856437e+02
748             	3.00856343e+02
749             	3.00856068e+02
750             	3.00856173e+02
751             	3.00856574e+02
752             	3.00856654e+02
753             	3.00856376e+02
754             	3.00856163e+02
755             	3.00856209e+02
756             	3.00856272e+02
757             	3.00856318e+02
758             	3.00855870e+02
759             	3.00855575e+02
760             	3.00855428e+02
761             	3.00855455e+02
762             	3.00855146e+02
763             	3.00854695e+02
764             	3.00854677e+02
765             	3.00854779e+02
766             	3.00854675e+02
767             	3.00854410e+02
768             	3.00853962e+02
769             	3.00853803e+02
770             	3.00854040e+02
771             	3.00854108e+02
772             	3.00853866e+02
773             	3.00853797e+02
774             	3.00853902e+02
775             	3.00853966e+02
776             	3.00853844e+02
777             	3.00853538e+02
778             	3.00853593e+02
779             	3.00854019e+02
780             	3.00854307e+02
781             	3.00854308e+02
782             	3.00854429e+02
783             	3.00854809e+02
784             	3.00855397e+02
785             	3.00855657e+02
786             	3.00855717e+02
787             	3.00855681e+02
788             	3.00856055e+02
789             	3.00856426e+02
790             	3.00856678e+02
791             	3.00856532e+02
792             	3.00856643e+02
793             	3.00857173e+02
794             	3.00857416e+02
795             	3.00857495e+02
796             	3.00857454e+02
797             	3.00857446e+02
798             	3.00857537e+02
799             	3.00857606e+02
800             	3.00857277e+02
801             	3.00856826e+02
802             	3.00856903e+02
803             	3.00857237e+02
804             	3.00856904e+02
805             	3.00856536e+02
806             	3.00856232e+02
807             	3.00856030e+02
808             	3.00855914e+02
809             	3.00855448e+02
810             	3.00854946e+02
811             	3.00854703e+02
812             	3.00854697e+02
813             	3.00854513e+02
814             	3.00854138e+02
815             	3.00853698e+02
816             	3.00853648e+02
817             	3.00853784e+02
818             	3.00853703e+02
819             	3.00853470e+02
820             	3.00853534e+02
821             	3.00853858e+02
822             	3.00854249e+02
823             	3.00854316e+02
824             	3.00854232e+02
825             	3.00854463e+02
826             	3.00855045e+02
827             	3.00855342e+02
828             	3.00855239e+02
829             	3.00855268e+02
830             	3.00855607e+02
831             	3.00856005e+02
832             	3.00856191e+02
833             	3.00856216e+02
834             	3.00856261e+02
835             	3.00856361e+02
836             	3.00856712e+02
837             	3.00856766e+02
838             	3.00856468e+02
839             	3.00856383e+02
840             	3.00856447e+02
841             	3.00856299e+02
842             	3.00856434e+02
843             	3.00855682e+02
844             	3.00855427e+02
845             	3.00855468e+02
846             	3.00855486e+02
847             	3.00855183e+02
848             	3.00855085e+02
849             	3.00855250e+02
850             	3.00855427e+02
851             	3.00855103e+02
852             	3.00854799e+02
853             	3.00854626e+02
854             	3.00854811e+02
855             	3.00854764e+02
856             	3.00854531e+02
857             	3.00854487e+02
858             	3.00854634e+02
859             	3.00855095e+02
860             	3.00855304e+02
861             	3.00855262e+02
862             	3.00855434e+02
863             	3.00855640e+02
864             	3.00855867e+02
865             	3.00855976e+02
866             	3.00855943e+02
867             	3.00856156e+02
868             	3.00856752e+02
869             	3.00857071e+02
870             	3.00857006e+02
871             	3.00856631e+02
872             	3.00856744e+02
873             	3.00857088e+02
874             	3.00857130e+02
875             	3.00856947e+02
876             	3.00856725e+02
877             	3.00856901e+02
878             	3.00857169e+02
879             	3.00857149e+02
880             	3.00856922e+02
881             	3.00856872e+02
882             	3.00856959e+02
883             	3.00856989e+02
884             	3.00856763e+02
885             	3.00856489e+02
886             	3.00856329e+02
887             	3.00856719e+02
888             	3.00856783e+02
889             	3.00856255e+02
890             	3.00855871e+02
891             	3.00855793e+02
892             	3.00855831e+02
893             	3.00855684e+02
894             	3.00855258e+02
895             	3.00854957e+02
896             	3.00855098e+02
897             	3.00855183e+02
898             	3.00855057e+02
899             	3.00854695e+02
900             	3.00854487e+02
901             	3.00854878e+02
902             	3.00854986e+02
903             	3.00854443e+02
904             	3.00854556e+02
905             	3.00854829e+02
906             	3.00855262e+02
907             	3.00855364e+02
908             	3.00855483e+02
909             	3.00855631e+02
910             	3.00855787e+02
911             	3.00855961e+02
912             	3.00855751e+02
913             	3.00855297e+02
914             	3.00855341e+02
915             	3.00855417e+02
916             	3.00855354e+02
917             	3.00855288e+02
918             	3.00854949e+02
919             	3.00854910e+02
920             	3.00855151e+02
921             	3.00855166e+02
922             	3.00854900e+02
923             	3.00854912e+02
924             	3.00855164e+02
925             	3.00855493e+02
926             	3.00855518e+02
927             	3.00855157e+02
928             	3.00855101e+02
929             	3.00855390e+02
930             	3.00855431e+02
931             	3.00855200e+02
932             	3.00854913e+02
933             	3.00855193e+02