# Region        : cellZone fluid
# Cells         : 9226
# Volume        : 1.78599583e+01
# Time          	volAverage(T)
1               	2.99999917e+02
2               	2.99999942e+02
3               	3.00000262e+02
4               	3.00000787e+02
5               	3.00001080e+02
6               	3.00001410e+02
7               	3.00001695e+02
8               	3.00002221e+02
9               	3.00002642e+02
10              	3.00003322e+02
11              	3.00003860e+02
12              	3.00004547e+02
13              	3.00005379e+02
14              	3.00006116e+02
15              	3.00006893e+02
16              	3.00007529e+02
17              	3.00008109e+02
18              	3.00008973e+02
19              	3.00009910e+02
20              	3.00010786e+02
21              	3.00011763e+02
22              	3.00012634e+02
23              	3.00013922e+02
24              	3.00015108e+02
25              	3.00016341e+02
26              	3.00017360e+02
27              	3.00017980e+02
28              	3.00018685e+02
29              	3.00019737e+02
30              	3.00020516e+02
31              	3.00021226e+02
32              	3.00021768e+02
33              	3.00022446e+02
34              	3.00023118e+02
35              	3.00024236e+02
36              	3.00025486e+02
37              	3.00026901e+02
38              	3.00028183e+02
39              	3.00029509e+02
40              	3.00031039e+02
41              	3.00032925e+02
42              	3.00034759e+02
43              	3.00036892e+02
44              	3.00038712e+02
45              	3.00039802e+02
46              	3.00040777e+02
47              	3.00041705e+02
48              	3.00042831e+02
49              	3.00043982e+02
50              	3.00045568e+02
51              	3.00047413e+02
52              	3.00049383e+02
53              	3.00051512e+02
54              	3.00053134e+02
55              	3.00054749e+02
56              	3.00056248e+02
57              	3.00057404e+02
58              	3.00058467e+02
59              	3.00059623e+02
60              	3.00060731e+02
61              	3.00061799e+02
62              	3.00063195e+02
63              	3.00064784e+02
64              	3.00066373e+02
65              	3.00067871e+02
66              	3.00069527e+02
67              	3.00071128e+02
68              	3.00072531e+02
69              	3.00073783e+02
70              	3.00075060e+02
71              	3.00076462e+02
72              	3.00077954e+02
73              	3.00079572e+02
74              	3.00080632e+02
75              	3.00081814e+02
76              	3.00082826e+02
77              	3.00083890e+02
78              	3.00084701e+02
79              	3.00085622e+02
80              	3.00086365e+02
81              	3.00086987e+02
82              	3.00087568e+02
83              	3.00088107e+02
84              	3.00088927e+02
85              	3.00090281e+02
86              	3.00090945e+02
87              	3.00091893e+02
88              	3.00092917e+02
89              	3.00094079e+02
90              	3.00095479e+02
91              	3.00096886e+02
92              	3.00098779e+02
93              	3.00099527e+02
94              	3.00100177e+02
95              	3.00101501e+02
96              	3.00102350e+02
97              	3.00102996e+02
98              	3.00103429e+02
99              	3.00104245e+02
100             	3.00104812e+02
101             	3.00105527e+02
102             	3.00106136e+02
103             	3.00107301e+02
104             	3.00107562e+02
105             	3.00108150e+02
106             	3.00109696e+02
107             	3.00110133e+02
108             	3.00111052e+02
109             	3.00111887e+02
110             	3.00112770e+02
111             	3.00113392e+02
112             	3.00113993e+02
113             	3.00114263e+02
114             	3.00115051e+02
115             	3.00115640e+02
116             	3.00116187e+02
117             	3.00116773e+02
118             	3.00117374e+02
119             	3.00118137e+02
120             	3.00119007e+02
121             	3.00119495e+02
122             	3.00120430e+02
123             	3.00121089e+02
124             	3.00121626e+02
125             	3.00122223e+02
126             	3.00122812e+02
127             	3.00123454e+02
128             	3.00124202e+02
129             	3.00125047e+02
130             	3.00126068e+02
131             	3.00127131e+02
132             	3.00128033e+02
133             	3.00128885e+02
134             	3.00129321e+02
135             	3.00129741e+02
136             	3.00129863e+02
137             	3.00130511e+02
138             	3.00131072e+02
139             	3.00131705e+02
140             	3.00132389e+02
141             	3.00133309e+02
142             	3.00133595e+02
143             	3.00134525e+02
144             	3.00135526e+02
145             	3.00135642e+02
146             	3.00135639e+02
147             	3.00135715e+02
148             	3.00135876e+02
149             	3.00136086e+02
150             	3.00136246e+02
151             	3.00136742e+02
152             	3.00137071e+02
153             	3.00137463e+02
154             	3.00138085e+02
155             	3.00138816e+02
156             	3.00138738e+02
157             	3.00139088e+02
158             	3.00139164e+02
159             	3.00139326e+02
160             	3.00139243e+02
161             	3.00139213e+02
162             	3.00139170e+02
163             	3.00139148e+02
164             	3.00139727e+02
165             	3.00140661e+02
166             	3.00141098e+02
167             	3.00141118e+02
168             	3.00141218e+02
169             	3.00141365e+02
170             	3.00141636e+02
171             	3.00141879e+02
172             	3.00142041e+02
173             	3.00142035e+02
174             	3.00142540e+02
175             	3.00142902e+02
176             	3.00143335e+02
177             	3.00143430e+02
178             	3.00143884e+02
179             	3.00144300e+02
180             	3.00144790e+02
181             	3.00144985e+02
182             	3.00145105e+02
183             	3.00145149e+02
184             	3.00145167e+02
185             	3.00145144e+02
186             	3.00145151e+02
187             	3.00145166e+02
188             	3.00145593e+02
189             	3.00145478e+02
190             	3.00145497e+02
191             	3.00145591e+02
192             	3.00145861e+02
193             	3.00146084e+02
194             	3.00146216e+02
195             	3.00146443e+02
196             	3.00146818e+02
197             	3.00147108e+02
198             	3.00147396e+02
199             	3.00147658e+02
200             	3.00147907e+02
201             	3.00148251e+02
202             	3.00148575e+02
203             	3.00148933e+02
204             	3.00149241e+02
205             	3.00149600e+02
206             	3.00149923e+02
207             	3.00150183e+02
208             	3.00150446e+02
209             	3.00150676e+02
210             	3.00150901e+02
211             	3.00151152e+02
212             	3.00151400e+02
213             	3.00151546e+02
214             	3.00151858e+02
215             	3.00152077e+02
216             	3.00152288e+02
217             	3.00152527e+02
218             	3.00152828e+02
219             	3.00153026e+02
220             	3.00153240e+02
221             	3.00153386e+02
222             	3.00153531e+02
223             	3.00153566e+02
224             	3.00153640e+02
225             	3.00153670e+02
226             	3.00153677e+02
227             	3.00153715e+02
228             	3.00153696e+02
229             	3.00153718e+02
230             	3.00153784e+02
231             	3.00153890e+02
232             	3.00153837e+02
233             	3.00153897e+02
234             	3.00153972e+02
235             	3.00154092e+02
236             	3.00154172e+02
237             	3.00154341e+02
238             	3.00154424e+02
239             	3.00154494e+02
240             	3.00154564e+02
241             	3.00154709e+02
242             	3.00154853e+02
243             	3.00155066e+02
244             	3.00155161e+02
245             	3.00155341e+02
246             	3.00155560e+02
247             	3.00155871e+02
248             	3.00156128e+02
249             	3.00156320e+02
250             	3.00156625e+02
251             	3.00156915e+02
252             	3.00157193e+02
253             	3.00157422e+02
254             	3.00157718e+02
255             	3.00157923e+02
256             	3.00158088e+02
257             	3.00158197e+02
258             	3.00158451e+02
259             	3.00158626e+02
260             	3.00158799e+02
261             	3.00158903e+02
262             	3.00159024e+02
263             	3.00159090e+02
264             	3.00159198e+02
265             	3.00159253e+02
266             	3.00159344e+02
267             	3.00159400e+02
268             	3.00159464e+02
269             	3.00159520e+02
270             	3.00159606e+02
271             	3.00159519e+02
272             	3.00159512e+02
273             	3.00159494e+02
274             	3.00159521e+02
275             	3.00159499e+02
276             	3.00159569e+02
277             	3.00159545e+02
278             	3.00159605e+02
279             	3.00159582e+02
280             	3.00159564e+02
281             	3.00159650e+02
282             	3.00159699e+02
283             	3.00159739e+02
284             	3.00159824e+02
285             	3.00159873e+02
286             	3.00159975e+02
287             	3.00160035e+02
288             	3.00160152e+02
289             	3.00160231e+02
290             	3.00160345e+02
291             	3.00160497e+02
292             	3.00160576e+02
293             	3.00160680e+02
294             	3.00160800e+02
295             	3.00160883e+02
296             	3.00161016e+02
297             	3.00161112e+02
298             	3.00161244e+02
299             	3.00161348e+02
300             	3.00161445e+02
301             	3.00161495e+02
302             	3.00161633e+02
303             	3.00161713e+02
304             	3.00161856e+02
305             	3.00161960e+02
306             	3.00162091e+02
307             	3.00162158e+02
308             	3.00162237e+02
309             	3.00162270e+02
310             	3.00162329e+02
311             	3.00162346e+02
312             	3.00162426e+02
313             	3.00162466e+02
314             	3.00162537e+02
315             	3.00162564e+02
316             	3.00162644e+02
317             	3.00162688e+02
318             	3.00162768e+02
319             	3.00162857e+02
320             	3.00162976e+02
321             	3.00163043e+02
322             	3.00163158e+02
323             	3.00163229e+02
324             	3.00163347e+02
325             	3.00163413e+02
326             	3.00163557e+02
327             	3.00163635e+02
328             	3.00163670e+02
329             	3.00163776e+02
330             	3.00163827e+02
331             	3.00163905e+02
332             	3.00163941e+02
333             	3.00164031e+02
334             	3.00164091e+02
335             	3.00164186e+02
336             	3.00164243e+02
337             	3.00164381e+02
338             	3.00164478e+02
339             	3.00164578e+02
340             	3.00164699e+02
341             	3.00164797e+02
342             	3.00164906e+02
343             	3.00165022e+02
344             	3.00165100e+02
345             	3.00165194e+02
346             	3.00165239e+02
347             	3.00165314e+02
348             	3.00165339e+02
349             	3.00165373e+02
350             	3.00165409e+02
351             	3.00165481e+02
352             	3.00165478e+02
353             	3.00165547e+02
354             	3.00165565e+02
355             	3.00165620e+02
356             	3.00165616e+02
357             	3.00165653e+02
358             	3.00165644e+02
359             	3.00165697e+02
360             	3.00165710e+02
361             	3.00165742e+02
362             	3.00165746e+02
363             	3.00165808e+02
364             	3.00165832e+02
365             	3.00165911e+02
366             	3.00165943e+02
367             	3.00165990e+02
368             	3.00166002e+02
369             	3.00166138e+02
370             	3.00166139e+02
371             	3.00166211e+02
372             	3.00166257e+02
373             	3.00166358e+02
374             	3.00166430e+02
375             	3.00166546e+02
376             	3.00166626e+02
377             	3.00166740e+02
378             	3.00166844e+02
379             	3.00166948e+02
380             	3.00167012e+02
381             	3.00167109e+02
382             	3.00167157e+02
383             	3.00167244e+02
384             	3.00167246e+02
385             	3.00167330e+02
386             	3.00167411e+02
387             	3.00167507e+02
388             	3.00167547e+02
389             	3.00167614e+02
390             	3.00167633e+02
391             	3.00167681e+02
392             	3.00167680e+02
393             	3.00167726e+02
394             	3.00167712e+02
395             	3.00167729e+02
396             	3.00167705e+02
397             	3.00167741e+02
398             	3.00167726e+02
399             	3.00167740e+02
400             	3.00167737e+02
401             	3.00167756e+02
402             	3.00167740e+02
403             	3.00167783e+02
404             	3.00167809e+02
405             	3.00167843e+02
406             	3.00167814e+02
407             	3.00167844e+02
408             	3.00167846e+02
409             	3.00167902e+02
410             	3.00167915e+02
411             	3.00167959e+02
412             	3.00167961e+02
413             	3.00168007e+02
414             	3.00168025e+02
415             	3.00168136e+02
416             	3.00168147e+02
417             	3.00168206e+02
418             	3.00168224e+02
419             	3.00168282e+02
420             	3.00168305e+02
421             	3.00168367e+02
422             	3.00168387e+02
423             	3.00168444e+02
424             	3.00168464e+02
425             	3.00168526e+02
426             	3.00168565e+02
427             	3.00168551e+02
428             	3.00168610e+02
429             	3.00168679e+02
430             	3.00168684e+02
431             	3.00168721e+02
432             	3.00168713e+02
433             	3.00168745e+02
434             	3.00168732e+02
435             	3.00168756e+02
436             	3.00168736e+02
437             	3.00168735e+02
438             	3.00168695e+02
439             	3.00168768e+02
440             	3.00168700e+02
441             	3.00168701e+02
442             	3.00168679e+02
443             	3.00168720e+02
444             	3.00168739e+02
445             	3.00168759e+02
446             	3.00168747e+02
447             	3.00168783e+02
448             	3.00168787e+02
449             	3.00168834e+02
450             	3.00168844e+02
451             	3.00168894e+02
452             	3.00168907e+02
453             	3.00168954e+02
454             	3.00168983e+02
455             	3.00169000e+02
456             	3.00169035e+02
457             	3.00169095e+02
458             	3.00169105e+02
459             	3.00169163e+02
460             	3.00169187e+02
461             	3.00169254e+02
462             	3.00169254e+02
463             	3.00169321e+02
464             	3.00169340e+02
465             	3.00169400e+02
466             	3.00169387e+02
467             	3.00169440e+02
468             	3.00169439e+02
469             	3.00169475e+02
470             	3.00169468e+02
471             	3.00169492e+02
472             	3.00169475e+02
473             	3.00169487e+02
474             	3.00169447e+02
475             	3.00169446e+02
476             	3.00169434e+02
477             	3.00169430e+02
478             	3.00169393e+02
479             	3.00169411e+02
480             	3.00169395e+02
481             	3.00169405e+02
482             	3.00169393e+02
483             	3.00169399e+02
484             	3.00169364e+02
485             	3.00169390e+02
486             	3.00169373e+02
487             	3.00169399e+02
488             	3.00169403e+02
489             	3.00169445e+02
490             	3.00169435e+02
491             	3.00169478e+02
492             	3.00169482e+02
493             	3.00169528e+02
494             	3.00169533e+02
495             	3.00169598e+02
496             	3.00169614e+02
497             	3.00169652e+02
498             	3.00169677e+02
499             	3.00169736e+02
500             	3.00169751e+02
501             	3.00169774e+02
502             	3.00169800e+02
503             	3.00169864e+02
504             	3.00169881e+02
505             	3.00169939e+02
506             	3.00169939e+02
507             	3.00169978e+02
508             	3.00169974e+02
509             	3.00170005e+02
510             	3.00169992e+02
511             	3.00170014e+02
512             	3.00170051e+02
513             	3.00170033e+02
514             	3.00169977e+02
515             	3.00169970e+02
516             	3.00169951e+02
517             	3.00169954e+02
518             	3.00169912e+02
519             	3.00169924e+02
520             	3.00169897e+02
521             	3.00169915e+02
522             	3.00169911e+02
523             	3.00169964e+02
524             	3.00169974e+02
525             	3.00170021e+02
526             	3.00170024e+02
527             	3.00170061e+02
528             	3.00170030e+02
529             	3.00170073e+02
530             	3.00170069e+02
531             	3.00170089e+02
532             	3.00170069e+02
533             	3.00170095e+02
534             	3.00170074e+02
535             	3.00170093e+02
536             	3.00170082e+02
537             	3.00170115e+02
538             	3.00170107e+02
539             	3.00170138e+02
540             	3.00170128e+02
541             	3.00170163e+02
542             	3.00170162e+02
543             	3.00170218e+02
544             	3.00170187e+02
545             	3.00170199e+02
546             	3.00170174e+02
547             	3.00170185e+02
548             	3.00170165e+02
549             	3.00170185e+02
550             	3.00170159e+02
551             	3.00170175e+02
552             	3.00170150e+02
553             	3.00170163e+02
554             	3.00170139e+02
555             	3.00170153e+02
556             	3.00170131e+02
557             	3.00170155e+02
558             	3.00170145e+02
559             	3.00170177e+02
560             	3.00170145e+02
561             	3.00170188e+02
562             	3.00170181e+02
563             	3.00170207e+02
564             	3.00170198e+02
565             	3.00170221e+02
566             	3.00170209e+02
567             	3.00170241e+02
568             	3.00170235e+02
569             	3.00170270e+02
570             	3.00170256e+02
571             	3.00170286e+02
572             	3.00170284e+02
573             	3.00170332e+02
574             	3.00170343e+02
575             	3.00170365e+02
576             	3.00170352e+02
577             	3.00170382e+02
578             	3.00170374e+02
579             	3.00170403e+02
580             	3.00170398e+02
581             	3.00170431e+02
582             	3.00170424e+02
583             	3.00170453e+02
584             	3.00170443e+02
585             	3.00170471e+02
586             	3.00170455e+02
587             	3.00170471e+02
588             	3.00170441e+02
589             	3.00170448e+02
590             	3.00170417e+02
591             	3.00170436e+02
592             	3.00170412e+02
593             	3.00170430e+02
594             	3.00170409e+02
595             	3.00170427e+02
596             	3.00170405e+02
597             	3.00170422e+02
598             	3.00170402e+02
599             	3.00170419e+02
600             	3.00170398e+02
601             	3.00170415e+02
602             	3.00170397e+02
603             	3.00170416e+02
604             	3.00170395e+02
605             	3.00170408e+02
606             	3.00170388e+02
607             	3.00170406e+02
608             	3.00170388e+02
609             	3.00170403e+02
610             	3.00170384e+02
611             	3.00170414e+02
612             	3.00170391e+02
613             	3.00170414e+02
614             	3.00170417e+02
615             	3.00170436e+02
616             	3.00170420e+02
617             	3.00170447e+02
618             	3.00170438e+02
619             	3.00170467e+02
620             	3.00170456e+02
621             	3.00170481e+02
622             	3.00170469e+02
623             	3.00170497e+02
624             	3.00170477e+02
625             	3.00170512e+02
626             	3.00170504e+02
627             	3.00170531e+02
628             	3.00170517e+02
629             	3.00170540e+02
630             	3.00170525e+02
631             	3.00170549e+02
632             	3.00170538e+02
633             	3.00170579e+02
634             	3.00170562e+02
635             	3.00170585e+02
636             	3.00170571e+02
637             	3.00170600e+02
638             	3.00170589e+02
639             	3.00170615e+02
640             	3.00170602e+02
641             	3.00170626e+02
642             	3.00170615e+02
643             	3.00170639e+02
644             	3.00170621e+02
645             	3.00170628e+02
646             	3.00170621e+02
647             	3.00170647e+02
648             	3.00170631e+02
649             	3.00170650e+02
650             	3.00170630e+02
651             	3.00170652e+02
652             	3.00170650e+02
653             	3.00170661e+02
654             	3.00170637e+02
655             	3.00170655e+02
656             	3.00170633e+02
657             	3.00170648e+02
658             	3.00170627e+02
659             	3.00170642e+02
660             	3.00170620e+02
661             	3.00170642e+02
662             	3.00170625e+02
663             	3.00170648e+02
664             	3.00170633e+02
665             	3.00170658e+02
666             	3.00170647e+02
667             	3.00170675e+02
668             	3.00170662e+02
669             	3.00170683e+02
670             	3.00170672e+02
671             	3.00170697e+02
672             	3.00170683e+02
673             	3.00170706e+02
674             	3.00170690e+02
675             	3.00170710e+02
676             	3.00170693e+02
677             	3.00170713e+02
678             	3.00170693e+02
679             	3.00170713e+02
680             	3.00170696e+02
681             	3.00170716e+02
682             	3.00170697e+02
683             	3.00170717e+02
684             	3.00170701e+02
685             	3.00170723e+02
686             	3.00170703e+02
687             	3.00170723e+02
688             	3.00170704e+02
689             	3.00170721e+02
690             	3.00170699e+02
691             	3.00170721e+02
692             	3.00170702e+02
693             	3.00170721e+02
694             	3.00170703e+02
695             	3.00170722e+02
696             	3.00170700e+02
697             	3.00170716e+02
698             	3.00170696e+02
699             	3.00170714e+02
700             	3.00170692e+02
701             	3.00170713e+02
702             	3.00170699e+02
703             	3.00170724e+02
704             	3.00170710e+02
705             	3.00170735e+02
706             	3.00170723e+02
707             	3.00170749e+02
708             	3.00170734e+02
709             	3.00170755e+02
710             	3.00170739e+02
711             	3.00170766e+02
712             	3.00170750e+02
713             	3.00170774e+02
714             	3.00170758e+02
715             	3.00170780e+02
716             	3.00170763e+02
717             	3.00170784e+02
718             	3.00170767e+02
719             	3.00170788e+02
720             	3.00170769e+02
721             	3.00170788e+02
722             	3.00170770e+02
723             	3.00170790e+02
724             	3.00170771e+02
725             	3.00170792e+02
726             	3.00170773e+02
727             	3.00170793e+02
728             	3.00170774e+02
729             	3.00170798e+02
730             	3.00170778e+02
731             	3.00170795e+02
732             	3.00170775e+02
733             	3.00170792e+02
734             	3.00170772e+02
735             	3.00170789e+02
736             	3.00170767e+02
737             	3.00170786e+02
738             	3.00170766e+02
739             	3.00170785e+02
740             	3.00170765e+02
741             	3.00170788e+02
742             	3.00170771e+02
743             	3.00170793e+02
744             	3.00170772e+02
745             	3.00170796e+02
746             	3.00170778e+02
747             	3.00170797e+02
748             	3.00170779e+02
749             	3.00170799e+02
750             	3.00170780e+02
751             	3.00170798e+02
752             	3.00170778e+02
753             	3.00170798e+02
754             	3.00170778e+02
755             	3.00170801e+02
756             	3.00170781e+02
757             	3.00170808e+02
758             	3.00170788e+02
759             	3.00170809e+02
760             	3.00170792e+02
761             	3.00170814e+02
762             	3.00170798e+02
763             	3.00170820e+02
764             	3.00170800e+02
765             	3.00170824e+02
766             	3.00170804e+02
767             	3.00170826e+02
768             	3.00170808e+02
769             	3.00170830e+02
770             	3.00170812e+02
771             	3.00170833e+02
772             	3.00170815e+02
773             	3.00170835e+02
774             	3.00170817e+02
775             	3.00170838e+02
776             	3.00170821e+02
777             	3.00170841e+02
778             	3.00170823e+02
779             	3.00170843e+02
780             	3.00170824e+02
781             	3.00170844e+02
782             	3.00170825e+02
783             	3.00170845e+02
784             	3.00170826e+02
785             	3.00170846e+02
786             	3.00170828e+02
787             	3.00170850e+02
788             	3.00170830e+02
789             	3.00170850e+02
790             	3.00170830e+02
791             	3.00170849e+02
792             	3.00170829e+02
793             	3.00170847e+02
794             	3.00170827e+02
795             	3.00170846e+02
796             	3.00170826e+02
797             	3.00170844e+02
798             	3.00170824e+02
799             	3.00170843e+02
800             	3.00170823e+02
801             	3.00170842e+02
802             	3.00170823e+02
803             	3.00170844e+02
804             	3.00170826e+02
805             	3.00170846e+02
806             	3.00170828e+02
807             	3.00170850e+02
808             	3.00170832e+02
809             	3.00170852e+02
810             	3.00170832e+02
811             	3.00170854e+02
812             	3.00170837e+02
813             	3.00170857e+02
814             	3.00170840e+02
815             	3.00170860e+02
816             	3.00170842e+02
817             	3.00170861e+02
818             	3.00170842e+02
819             	3.00170863e+02
820             	3.00170845e+02
821             	3.00170865e+02
822             	3.00170846e+02
823             	3.00170866e+02
824             	3.00170846e+02
825             	3.00170866e+02
826             	3.00170846e+02
827             	3.00170865e+02
828             	3.00170846e+02
829             	3.00170866e+02
830             	3.00170847e+02
831             	3.00170867e+02
832             	3.00170847e+02
833             	3.00170866e+02
834             	3.00170847e+02
835             	3.00170867e+02
836             	3.00170848e+02
837             	3.00170868e+02
838             	3.00170850e+02
839             	3.00170870e+02
840             	3.00170852e+02
841             	3.00170873e+02
842             	3.00170853e+02
843             	3.00170874e+02
844             	3.00170855e+02
845             	3.00170875e+02
846             	3.00170854e+02
847             	3.00170875e+02
848             	3.00170857e+02
849             	3.00170878e+02
850             	3.00170859e+02
851             	3.00170879e+02
852             	3.00170861e+02
853             	3.00170881e+02
854             	3.00170863e+02
855             	3.00170883e+02
856             	3.00170864e+02
857             	3.00170884e+02
858             	3.00170863e+02
859             	3.00170881e+02
860             	3.00170861e+02
861             	3.00170880e+02
862             	3.00170860e+02
863             	3.00170879e+02
864             	3.00170860e+02
865             	3.00170878e+02
866             	3.00170859e+02
867             	3.00170879e+02
868             	3.00170858e+02
869             	3.00170878e+02
870             	3.00170860e+02
871             	3.00170880e+02
872             	3.00170861e+02
873             	3.00170881e+02
874             	3.00170863e+02
875             	3.00170883e+02
876             	3.00170864e+02
877             	3.00170884e+02
878             	3.00170864e+02
879             	3.00170884e+02
880             	3.00170866e+02
881             	3.00170885e+02
882             	3.00170867e+02
883             	3.00170886e+02
884             	3.00170867e+02
885             	3.00170887e+02
886             	3.00170868e+02
887             	3.00170887e+02
888             	3.00170869e+02
889             	3.00170889e+02
890             	3.00170870e+02
891             	3.00170890e+02
892             	3.00170872e+02
893             	3.00170893e+02
894             	3.00170875e+02
895             	3.00170895e+02
896             	3.00170876e+02
897             	3.00170896e+02
898             	3.00170877e+02
899             	3.00170898e+02
900             	3.00170878e+02
901             	3.00170896e+02
902             	3.00170876e+02
903             	3.00170894e+02
904             	3.00170874e+02
905             	3.00170893e+02
906             	3.00170874e+02
907             	3.00170893e+02
908             	3.00170873e+02
909             	3.00170893e+02
910             	3.00170876e+02
911             	3.00170896e+02
912             	3.00170877e+02
913             	3.00170899e+02
914             	3.00170879e+02
915             	3.00170899e+02
916             	3.00170879e+02
917             	3.00170898e+02
918             	3.00170879e+02
919             	3.00170898e+02
920             	3.00170880e+02
921             	3.00170898e+02
922             	3.00170879e+02
923             	3.00170898e+02
924             	3.00170878e+02
925             	3.00170898e+02
926             	3.00170879e+02
927             	3.00170899e+02
928             	3.00170880e+02
929             	3.00170903e+02
930             	3.00170883e+02
931             	3.00170901e+02
932             	3.00170882e+02
933             	3.00170901e+02