# Region        : cellZone component_0
# Cells         : 84
# Volume        : 5.25960035e-02
# Time          	volAverage(T)
1               	3.00633855e+02
2               	3.01254540e+02
3               	3.01806152e+02
4               	3.02308175e+02
5               	3.02775810e+02
6               	3.03217287e+02
7               	3.03638010e+02
8               	3.04041736e+02
9               	3.04431999e+02
10              	3.04812788e+02
11              	3.05185639e+02
12              	3.05554013e+02
13              	3.05920093e+02
14              	3.06283890e+02
15              	3.06645177e+02
16              	3.07004364e+02
17              	3.07359708e+02
18              	3.07708529e+02
19              	3.08051895e+02
20              	3.08388142e+02
21              	3.08716964e+02
22              	3.09038291e+02
23              	3.09352087e+02
24              	3.09657582e+02
25              	3.09953727e+02
26              	3.10239481e+02
27              	3.10514685e+02
28              	3.10780015e+02
29              	3.11036657e+02
30              	3.11286467e+02
31              	3.11531741e+02
32              	3.11775328e+02
33              	3.12019446e+02
34              	3.12267273e+02
35              	3.12520246e+02
36              	3.12777098e+02
37              	3.13033045e+02
38              	3.13283252e+02
39              	3.13524891e+02
40              	3.13753284e+02
41              	3.13967348e+02
42              	3.14167730e+02
43              	3.14355329e+02
44              	3.14533236e+02
45              	3.14704566e+02
46              	3.14872016e+02
47              	3.15037138e+02
48              	3.15201787e+02
49              	3.15366228e+02
50              	3.15531428e+02
51              	3.15695295e+02
52              	3.15859192e+02
53              	3.16022758e+02
54              	3.16185742e+02
55              	3.16348967e+02
56              	3.16512840e+02
57              	3.16676120e+02
58              	3.16836386e+02
59              	3.16990847e+02
60              	3.17137643e+02
61              	3.17274847e+02
62              	3.17401179e+02
63              	3.17516614e+02
64              	3.17622918e+02
65              	3.17724355e+02
66              	3.17826013e+02
67              	3.17931357e+02
68              	3.18042182e+02
69              	3.18157681e+02
70              	3.18278228e+02
71              	3.18398069e+02
72              	3.18516527e+02
73              	3.18630420e+02
74              	3.18739289e+02
75              	3.18844177e+02
76              	3.18947212e+02
77              	3.19049743e+02
78              	3.19153638e+02
79              	3.19258075e+02
80              	3.19361530e+02
81              	3.19461682e+02
82              	3.19556043e+02
83              	3.19643387e+02
84              	3.19722384e+02
85              	3.19793584e+02
86              	3.19859447e+02
87              	3.19923730e+02
88              	3.19988633e+02
89              	3.20056058e+02
90              	3.20126139e+02
91              	3.20199409e+02
92              	3.20275679e+02
93              	3.20354645e+02
94              	3.20433529e+02
95              	3.20511275e+02
96              	3.20587463e+02
97              	3.20660388e+02
98              	3.20729329e+02
99              	3.20794345e+02
100             	3.20855492e+02
101             	3.20912833e+02
102             	3.20965731e+02
103             	3.21013357e+02
104             	3.21056148e+02
105             	3.21094655e+02
106             	3.21130969e+02
107             	3.21166429e+02
108             	3.21202855e+02
109             	3.21241830e+02
110             	3.21284862e+02
111             	3.21333095e+02
112             	3.21386034e+02
113             	3.21441024e+02
114             	3.21495766e+02
115             	3.21548177e+02
116             	3.21596326e+02
117             	3.21638860e+02
118             	3.21674936e+02
119             	3.21704954e+02
120             	3.21730918e+02
121             	3.21755075e+02
122             	3.21778642e+02
123             	3.21803212e+02
124             	3.21829898e+02
125             	3.21859733e+02
126             	3.21893277e+02
127             	3.21930456e+02
128             	3.21970757e+02
129             	3.22012171e+02
130             	3.22052961e+02
131             	3.22091401e+02
132             	3.22125851e+02
133             	3.22154862e+02
134             	3.22177719e+02
135             	3.22194643e+02
136             	3.22208241e+02
137             	3.22221104e+02
138             	3.22235309e+02
139             	3.22252693e+02
140             	3.22274664e+02
141             	3.22299639e+02
142             	3.22326580e+02
143             	3.22353579e+02
144             	3.22378768e+02
145             	3.22400943e+02
146             	3.22419647e+02
147             	3.22434317e+02
148             	3.22445755e+02
149             	3.22455896e+02
150             	3.22466971e+02
151             	3.22480711e+02
152             	3.22499043e+02
153             	3.22522266e+02
154             	3.22550155e+02
155             	3.22580418e+02
156             	3.22611113e+02
157             	3.22639883e+02
158             	3.22665452e+02
159             	3.22686368e+02
160             	3.22702258e+02
161             	3.22713208e+02
162             	3.22720597e+02
163             	3.22726016e+02
164             	3.22731117e+02
165             	3.22737264e+02
166             	3.22745783e+02
167             	3.22757856e+02
168             	3.22774198e+02
169             	3.22793927e+02
170             	3.22815498e+02
171             	3.22837151e+02
172             	3.22857260e+02
173             	3.22874265e+02
174             	3.22887601e+02
175             	3.22896847e+02
176             	3.22902538e+02
177             	3.22906350e+02
178             	3.22910049e+02
179             	3.22914838e+02
180             	3.22921889e+02
181             	3.22932083e+02
182             	3.22944502e+02
183             	3.22957785e+02
184             	3.22971173e+02
185             	3.22983738e+02
186             	3.22994923e+02
187             	3.23004308e+02
188             	3.23011457e+02
189             	3.23016361e+02
190             	3.23019112e+02
191             	3.23020277e+02
192             	3.23020521e+02
193             	3.23020897e+02
194             	3.23022193e+02
195             	3.23024950e+02
196             	3.23029471e+02
197             	3.23036007e+02
198             	3.23044584e+02
199             	3.23055170e+02
200             	3.23067539e+02
201             	3.23081097e+02
202             	3.23094948e+02
203             	3.23108361e+02
204             	3.23120897e+02
205             	3.23131983e+02
206             	3.23141150e+02
207             	3.23147952e+02
208             	3.23152194e+02
209             	3.23153538e+02
210             	3.23152886e+02
211             	3.23151356e+02
212             	3.23150248e+02
213             	3.23150860e+02
214             	3.23154238e+02
215             	3.23160813e+02
216             	3.23170152e+02
217             	3.23180951e+02
218             	3.23191971e+02
219             	3.23202039e+02
220             	3.23210183e+02
221             	3.23215907e+02
222             	3.23219006e+02
223             	3.23219707e+02
224             	3.23218521e+02
225             	3.23216041e+02
226             	3.23213310e+02
227             	3.23210801e+02
228             	3.23209553e+02
229             	3.23210067e+02
230             	3.23212707e+02
231             	3.23217673e+02
232             	3.23225026e+02
233             	3.23234163e+02
234             	3.23244398e+02
235             	3.23254724e+02
236             	3.23264119e+02
237             	3.23271838e+02
238             	3.23277446e+02
239             	3.23280685e+02
240             	3.23281608e+02
241             	3.23280469e+02
242             	3.23278280e+02
243             	3.23275849e+02
244             	3.23274434e+02
245             	3.23274905e+02
246             	3.23277592e+02
247             	3.23282396e+02
248             	3.23288843e+02
249             	3.23296484e+02
250             	3.23304535e+02
251             	3.23312547e+02
252             	3.23320192e+02
253             	3.23327158e+02
254             	3.23333556e+02
255             	3.23339199e+02
256             	3.23343647e+02
257             	3.23346249e+02
258             	3.23346866e+02
259             	3.23345558e+02
260             	3.23342961e+02
261             	3.23340130e+02
262             	3.23338023e+02
263             	3.23337547e+02
264             	3.23339444e+02
265             	3.23344198e+02
266             	3.23351127e+02
267             	3.23358800e+02
268             	3.23366224e+02
269             	3.23372203e+02
270             	3.23375805e+02
271             	3.23376601e+02
272             	3.23374692e+02
273             	3.23371344e+02
274             	3.23367726e+02
275             	3.23365463e+02
276             	3.23365642e+02
277             	3.23368820e+02
278             	3.23374909e+02
279             	3.23382640e+02
280             	3.23390397e+02
281             	3.23396871e+02
282             	3.23400982e+02
283             	3.23402520e+02
284             	3.23402077e+02
285             	3.23400365e+02
286             	3.23397967e+02
287             	3.23395767e+02
288             	3.23394108e+02
289             	3.23392868e+02
290             	3.23391543e+02
291             	3.23389798e+02
292             	3.23387165e+02
293             	3.23383611e+02
294             	3.23379524e+02
295             	3.23375595e+02
296             	3.23372424e+02
297             	3.23370762e+02
298             	3.23371176e+02
299             	3.23374001e+02
300             	3.23379262e+02
301             	3.23385991e+02
302             	3.23393284e+02
303             	3.23400103e+02
304             	3.23405499e+02
305             	3.23408927e+02
306             	3.23410376e+02
307             	3.23409820e+02
308             	3.23407534e+02
309             	3.23403759e+02
310             	3.23399016e+02
311             	3.23393713e+02
312             	3.23388403e+02
313             	3.23383762e+02
314             	3.23380282e+02
315             	3.23378426e+02
316             	3.23378294e+02
317             	3.23380017e+02
318             	3.23383704e+02
319             	3.23388812e+02
320             	3.23394826e+02
321             	3.23401011e+02
322             	3.23406689e+02
323             	3.23411159e+02
324             	3.23413904e+02
325             	3.23414218e+02
326             	3.23412467e+02
327             	3.23409290e+02
328             	3.23405672e+02
329             	3.23402575e+02
330             	3.23400708e+02
331             	3.23400675e+02
332             	3.23402593e+02
333             	3.23406324e+02
334             	3.23410589e+02
335             	3.23414473e+02
336             	3.23417276e+02
337             	3.23418186e+02
338             	3.23416872e+02
339             	3.23414232e+02
340             	3.23410936e+02
341             	3.23407849e+02
342             	3.23405805e+02
343             	3.23405747e+02
344             	3.23408455e+02
345             	3.23413123e+02
346             	3.23419086e+02
347             	3.23425546e+02
348             	3.23431344e+02
349             	3.23435677e+02
350             	3.23437555e+02
351             	3.23436733e+02
352             	3.23433697e+02
353             	3.23429944e+02
354             	3.23426832e+02
355             	3.23425808e+02
356             	3.23427227e+02
357             	3.23430299e+02
358             	3.23434213e+02
359             	3.23437805e+02
360             	3.23440295e+02
361             	3.23441059e+02
362             	3.23440286e+02
363             	3.23438407e+02
364             	3.23436189e+02
365             	3.23434313e+02
366             	3.23433336e+02
367             	3.23433630e+02
368             	3.23435347e+02
369             	3.23438343e+02
370             	3.23442036e+02
371             	3.23445845e+02
372             	3.23449256e+02
373             	3.23451817e+02
374             	3.23453050e+02
375             	3.23453008e+02
376             	3.23451953e+02
377             	3.23450484e+02
378             	3.23449175e+02
379             	3.23448694e+02
380             	3.23449442e+02
381             	3.23451389e+02
382             	3.23454081e+02
383             	3.23457022e+02
384             	3.23459685e+02
385             	3.23461510e+02
386             	3.23462215e+02
387             	3.23461893e+02
388             	3.23460769e+02
389             	3.23459212e+02
390             	3.23457670e+02
391             	3.23456540e+02
392             	3.23456165e+02
393             	3.23456767e+02
394             	3.23458405e+02
395             	3.23460721e+02
396             	3.23463158e+02
397             	3.23465151e+02
398             	3.23466186e+02
399             	3.23466119e+02
400             	3.23465126e+02
401             	3.23463613e+02
402             	3.23462099e+02
403             	3.23461106e+02
404             	3.23461000e+02
405             	3.23461997e+02
406             	3.23463955e+02
407             	3.23466379e+02
408             	3.23468734e+02
409             	3.23470539e+02
410             	3.23471370e+02
411             	3.23471082e+02
412             	3.23469851e+02
413             	3.23467969e+02
414             	3.23466068e+02
415             	3.23464581e+02
416             	3.23463995e+02
417             	3.23464468e+02
418             	3.23465848e+02
419             	3.23467817e+02
420             	3.23469768e+02
421             	3.23471203e+02
422             	3.23471761e+02
423             	3.23471336e+02
424             	3.23470167e+02
425             	3.23468795e+02
426             	3.23467662e+02
427             	3.23467178e+02
428             	3.23467583e+02
429             	3.23468942e+02
430             	3.23470894e+02
431             	3.23473011e+02
432             	3.23474851e+02
433             	3.23476088e+02
434             	3.23476482e+02
435             	3.23476135e+02
436             	3.23475223e+02
437             	3.23474208e+02
438             	3.23473508e+02
439             	3.23473427e+02
440             	3.23474095e+02
441             	3.23475407e+02
442             	3.23477010e+02
443             	3.23478543e+02
444             	3.23479606e+02
445             	3.23480033e+02
446             	3.23479828e+02
447             	3.23479090e+02
448             	3.23478110e+02
449             	3.23477197e+02
450             	3.23476535e+02
451             	3.23476336e+02
452             	3.23476675e+02
453             	3.23477391e+02
454             	3.23478145e+02
455             	3.23478711e+02
456             	3.23478890e+02
457             	3.23478692e+02
458             	3.23478231e+02
459             	3.23477683e+02
460             	3.23477159e+02
461             	3.23476772e+02
462             	3.23476629e+02
463             	3.23476772e+02
464             	3.23477164e+02
465             	3.23477703e+02
466             	3.23478236e+02
467             	3.23478623e+02
468             	3.23478720e+02
469             	3.23478511e+02
470             	3.23478059e+02
471             	3.23477517e+02
472             	3.23476995e+02
473             	3.23476616e+02
474             	3.23476475e+02
475             	3.23476593e+02
476             	3.23476938e+02
477             	3.23477381e+02
478             	3.23477797e+02
479             	3.23478087e+02
480             	3.23478141e+02
481             	3.23477927e+02
482             	3.23477499e+02
483             	3.23476960e+02
484             	3.23476449e+02
485             	3.23476066e+02
486             	3.23475914e+02
487             	3.23476005e+02
488             	3.23476297e+02
489             	3.23476672e+02
490             	3.23477009e+02
491             	3.23477203e+02
492             	3.23477197e+02
493             	3.23476983e+02
494             	3.23476624e+02
495             	3.23476263e+02
496             	3.23476009e+02
497             	3.23475963e+02
498             	3.23476149e+02
499             	3.23476503e+02
500             	3.23476919e+02
501             	3.23477277e+02
502             	3.23477487e+02
503             	3.23477471e+02
504             	3.23477216e+02
505             	3.23476776e+02
506             	3.23476282e+02
507             	3.23475848e+02
508             	3.23475575e+02
509             	3.23475533e+02
510             	3.23475727e+02
511             	3.23476109e+02
512             	3.23476551e+02
513             	3.23476954e+02
514             	3.23477228e+02
515             	3.23477311e+02
516             	3.23477195e+02
517             	3.23476908e+02
518             	3.23476532e+02
519             	3.23476133e+02
520             	3.23475787e+02
521             	3.23475562e+02
522             	3.23475506e+02
523             	3.23475610e+02
524             	3.23475821e+02
525             	3.23476085e+02
526             	3.23476320e+02
527             	3.23476452e+02
528             	3.23476419e+02
529             	3.23476220e+02
530             	3.23475894e+02
531             	3.23475513e+02
532             	3.23475163e+02
533             	3.23474935e+02
534             	3.23474879e+02
535             	3.23474995e+02
536             	3.23475229e+02
537             	3.23475500e+02
538             	3.23475719e+02
539             	3.23475820e+02
540             	3.23475772e+02
541             	3.23475588e+02
542             	3.23475319e+02
543             	3.23475022e+02
544             	3.23474762e+02
545             	3.23474598e+02
546             	3.23474563e+02
547             	3.23474649e+02
548             	3.23474802e+02
549             	3.23474962e+02
550             	3.23475074e+02
551             	3.23475101e+02
552             	3.23475034e+02
553             	3.23474896e+02
554             	3.23474725e+02
555             	3.23474555e+02
556             	3.23474423e+02
557             	3.23474367e+02
558             	3.23474399e+02
559             	3.23474515e+02
560             	3.23474681e+02
561             	3.23474855e+02
562             	3.23474992e+02
563             	3.23475044e+02
564             	3.23474996e+02
565             	3.23474860e+02
566             	3.23474674e+02
567             	3.23474476e+02
568             	3.23474315e+02
569             	3.23474228e+02
570             	3.23474236e+02
571             	3.23474333e+02
572             	3.23474486e+02
573             	3.23474646e+02
574             	3.23474766e+02
575             	3.23474800e+02
576             	3.23474750e+02
577             	3.23474622e+02
578             	3.23474448e+02
579             	3.23474264e+02
580             	3.23474119e+02
581             	3.23474058e+02
582             	3.23474092e+02
583             	3.23474207e+02
584             	3.23474363e+02
585             	3.23474513e+02
586             	3.23474600e+02
587             	3.23474598e+02
588             	3.23474512e+02
589             	3.23474362e+02
590             	3.23474179e+02
591             	3.23474002e+02
592             	3.23473872e+02
593             	3.23473821e+02
594             	3.23473857e+02
595             	3.23473962e+02
596             	3.23474103e+02
597             	3.23474239e+02
598             	3.23474326e+02
599             	3.23474339e+02
600             	3.23474273e+02
601             	3.23474158e+02
602             	3.23474029e+02
603             	3.23473925e+02
604             	3.23473872e+02
605             	3.23473871e+02
606             	3.23473918e+02
607             	3.23473992e+02
608             	3.23474071e+02
609             	3.23474129e+02
610             	3.23474147e+02
611             	3.23474121e+02
612             	3.23474054e+02
613             	3.23473959e+02
614             	3.23473856e+02
615             	3.23473768e+02
616             	3.23473718e+02
617             	3.23473713e+02
618             	3.23473755e+02
619             	3.23473825e+02
620             	3.23473903e+02
621             	3.23473962e+02
622             	3.23473981e+02
623             	3.23473954e+02
624             	3.23473893e+02
625             	3.23473821e+02
626             	3.23473760e+02
627             	3.23473732e+02
628             	3.23473747e+02
629             	3.23473799e+02
630             	3.23473869e+02
631             	3.23473933e+02
632             	3.23473970e+02
633             	3.23473964e+02
634             	3.23473914e+02
635             	3.23473832e+02
636             	3.23473738e+02
637             	3.23473651e+02
638             	3.23473586e+02
639             	3.23473555e+02
640             	3.23473560e+02
641             	3.23473600e+02
642             	3.23473660e+02
643             	3.23473724e+02
644             	3.23473778e+02
645             	3.23473807e+02
646             	3.23473805e+02
647             	3.23473774e+02
648             	3.23473724e+02
649             	3.23473665e+02
650             	3.23473616e+02
651             	3.23473588e+02
652             	3.23473592e+02
653             	3.23473628e+02
654             	3.23473687e+02
655             	3.23473755e+02
656             	3.23473815e+02
657             	3.23473847e+02
658             	3.23473843e+02
659             	3.23473803e+02
660             	3.23473741e+02
661             	3.23473677e+02
662             	3.23473630e+02
663             	3.23473615e+02
664             	3.23473631e+02
665             	3.23473672e+02
666             	3.23473723e+02
667             	3.23473769e+02
668             	3.23473796e+02
669             	3.23473799e+02
670             	3.23473779e+02
671             	3.23473745e+02
672             	3.23473711e+02
673             	3.23473685e+02
674             	3.23473676e+02
675             	3.23473684e+02
676             	3.23473705e+02
677             	3.23473729e+02
678             	3.23473752e+02
679             	3.23473767e+02
680             	3.23473770e+02
681             	3.23473761e+02
682             	3.23473741e+02
683             	3.23473716e+02
684             	3.23473690e+02
685             	3.23473669e+02
686             	3.23473657e+02
687             	3.23473657e+02
688             	3.23473668e+02
689             	3.23473687e+02
690             	3.23473708e+02
691             	3.23473728e+02
692             	3.23473741e+02
693             	3.23473743e+02
694             	3.23473734e+02
695             	3.23473715e+02
696             	3.23473693e+02
697             	3.23473671e+02
698             	3.23473656e+02
699             	3.23473651e+02
700             	3.23473658e+02
701             	3.23473673e+02
702             	3.23473692e+02
703             	3.23473711e+02
704             	3.23473723e+02
705             	3.23473724e+02
706             	3.23473715e+02
707             	3.23473697e+02
708             	3.23473674e+02
709             	3.23473652e+02
710             	3.23473636e+02
711             	3.23473631e+02
712             	3.23473638e+02
713             	3.23473652e+02
714             	3.23473671e+02
715             	3.23473690e+02
716             	3.23473701e+02
717             	3.23473703e+02
718             	3.23473695e+02
719             	3.23473679e+02
720             	3.23473660e+02
721             	3.23473642e+02
722             	3.23473630e+02
723             	3.23473626e+02
724             	3.23473633e+02
725             	3.23473646e+02
726             	3.23473663e+02
727             	3.23473677e+02
728             	3.23473685e+02
729             	3.23473685e+02
730             	3.23473677e+02
731             	3.23473666e+02
732             	3.23473652e+02
733             	3.23473641e+02
734             	3.23473635e+02
735             	3.23473636e+02
736             	3.23473642e+02
737             	3.23473652e+02
738             	3.23473662e+02
739             	3.23473670e+02
740             	3.23473673e+02
741             	3.23473671e+02
742             	3.23473664e+02
743             	3.23473653e+02
744             	3.23473640e+02
745             	3.23473630e+02
746             	3.23473625e+02
747             	3.23473627e+02
748             	3.23473636e+02
749             	3.23473647e+02
750             	3.23473658e+02
751             	3.23473663e+02
752             	3.23473662e+02
753             	3.23473654e+02
754             	3.23473642e+02
755             	3.23473629e+02
756             	3.23473618e+02
757             	3.23473613e+02
758             	3.23473615e+02
759             	3.23473620e+02
760             	3.23473629e+02
761             	3.23473637e+02
762             	3.23473642e+02
763             	3.23473644e+02
764             	3.23473641e+02
765             	3.23473634e+02
766             	3.23473626e+02
767             	3.23473617e+02
768             	3.23473611e+02
769             	3.23473608e+02
770             	3.23473609e+02
771             	3.23473615e+02
772             	3.23473622e+02
773             	3.23473630e+02
774             	3.23473636e+02
775             	3.23473640e+02
776             	3.23473639e+02
777             	3.23473635e+02
778             	3.23473629e+02
779             	3.23473622e+02
780             	3.23473618e+02
781             	3.23473618e+02
782             	3.23473621e+02
783             	3.23473626e+02
784             	3.23473633e+02
785             	3.23473640e+02
786             	3.23473644e+02
787             	3.23473645e+02
788             	3.23473643e+02
789             	3.23473639e+02
790             	3.23473634e+02
791             	3.23473630e+02
792             	3.23473629e+02
793             	3.23473631e+02
794             	3.23473637e+02
795             	3.23473644e+02
796             	3.23473651e+02
797             	3.23473656e+02
798             	3.23473659e+02
799             	3.23473658e+02
800             	3.23473656e+02
801             	3.23473652e+02
802             	3.23473649e+02
803             	3.23473647e+02
804             	3.23473649e+02
805             	3.23473653e+02
806             	3.23473660e+02
807             	3.23473668e+02
808             	3.23473677e+02
809             	3.23473684e+02
810             	3.23473689e+02
811             	3.23473691e+02
812             	3.23473689e+02
813             	3.23473686e+02
814             	3.23473682e+02
815             	3.23473680e+02
816             	3.23473679e+02
817             	3.23473682e+02
818             	3.23473686e+02
819             	3.23473691e+02
820             	3.23473696e+02
821             	3.23473701e+02
822             	3.23473704e+02
823             	3.23473705e+02
824             	3.23473705e+02
825             	3.23473704e+02
826             	3.23473702e+02
827             	3.23473701e+02
828             	3.23473701e+02
829             	3.23473702e+02
830             	3.23473705e+02
831             	3.23473708e+02
832             	3.23473712e+02
833             	3.23473716e+02
834             	3.23473718e+02
835             	3.23473719e+02
836             	3.23473718e+02
837             	3.23473717e+02
838             	3.23473714e+02
839             	3.23473713e+02
840             	3.23473713e+02
841             	3.23473715e+02
842             	3.23473719e+02
843             	3.23473724e+02
844             	3.23473728e+02
845             	3.23473731e+02
846             	3.23473733e+02
847             	3.23473732e+02
848             	3.23473730e+02
849             	3.23473728e+02
850             	3.23473727e+02
851             	3.23473726e+02
852             	3.23473727e+02
853             	3.23473730e+02
854             	3.23473735e+02
855             	3.23473740e+02
856             	3.23473746e+02
857             	3.23473750e+02
858             	3.23473752e+02
859             	3.23473753e+02
860             	3.23473751e+02
861             	3.23473748e+02
862             	3.23473746e+02
863             	3.23473744e+02
864             	3.23473744e+02
865             	3.23473746e+02
866             	3.23473750e+02
867             	3.23473755e+02
868             	3.23473760e+02
869             	3.23473765e+02
870             	3.23473769e+02
871             	3.23473771e+02
872             	3.23473771e+02
873             	3.23473769e+02
874             	3.23473766e+02
875             	3.23473762e+02
876             	3.23473760e+02
877             	3.23473758e+02
878             	3.23473759e+02
879             	3.23473761e+02
880             	3.23473765e+02
881             	3.23473769e+02
882             	3.23473773e+02
883             	3.23473775e+02
884             	3.23473774e+02
885             	3.23473772e+02
886             	3.23473768e+02
887             	3.23473764e+02
888             	3.23473761e+02
889             	3.23473759e+02
890             	3.23473759e+02
891             	3.23473760e+02
892             	3.23473763e+02
893             	3.23473765e+02
894             	3.23473766e+02
895             	3.23473765e+02
896             	3.23473763e+02
897             	3.23473760e+02
898             	3.23473755e+02
899             	3.23473751e+02
900             	3.23473747e+02
901             	3.23473745e+02
902             	3.23473744e+02
903             	3.23473745e+02
904             	3.23473746e+02
905             	3.23473748e+02
906             	3.23473750e+02
907             	3.23473750e+02
908             	3.23473748e+02
909             	3.23473745e+02
910             	3.23473741e+02
911             	3.23473736e+02
912             	3.23473732e+02
913             	3.23473728e+02
914             	3.23473726e+02
915             	3.23473725e+02
916             	3.23473726e+02
917             	3.23473726e+02
918             	3.23473726e+02
919             	3.23473726e+02
920             	3.23473725e+02
921             	3.23473722e+02
922             	3.23473717e+02
923             	3.23473712e+02
924             	3.23473707e+02
925             	3.23473702e+02
926             	3.23473699e+02
927             	3.23473697e+02
928             	3.23473697e+02
929             	3.23473697e+02
930             	3.23473697e+02
931             	3.23473696e+02
932             	3.23473693e+02
933             	3.23473688e+02