# Region        : cellZone component_2
# Cells         : 220
# Volume        : 4.63710132e-01
# Time          	volAverage(T)
1               	3.00691896e+02
2               	3.01375385e+02
3               	3.01997183e+02
4               	3.02580856e+02
5               	3.03149727e+02
6               	3.03712489e+02
7               	3.04269357e+02
8               	3.04821080e+02
9               	3.05366682e+02
10              	3.05905499e+02
11              	3.06439587e+02
12              	3.06969303e+02
13              	3.07502505e+02
14              	3.08036175e+02
15              	3.08563386e+02
16              	3.09083714e+02
17              	3.09602636e+02
18              	3.10103993e+02
19              	3.10594993e+02
20              	3.11071895e+02
21              	3.11554999e+02
22              	3.12041565e+02
23              	3.12522956e+02
24              	3.13001419e+02
25              	3.13463631e+02
26              	3.13923335e+02
27              	3.14380137e+02
28              	3.14825934e+02
29              	3.15263784e+02
30              	3.15694496e+02
31              	3.16125622e+02
32              	3.16559404e+02
33              	3.16983752e+02
34              	3.17400725e+02
35              	3.17810961e+02
36              	3.18211817e+02
37              	3.18599888e+02
38              	3.18990620e+02
39              	3.19365589e+02
40              	3.19736144e+02
41              	3.20096227e+02
42              	3.20456442e+02
43              	3.20808155e+02
44              	3.21149861e+02
45              	3.21487618e+02
46              	3.21830453e+02
47              	3.22176378e+02
48              	3.22504858e+02
49              	3.22818355e+02
50              	3.23129193e+02
51              	3.23450042e+02
52              	3.23775929e+02
53              	3.24098044e+02
54              	3.24390381e+02
55              	3.24685809e+02
56              	3.24970667e+02
57              	3.25240793e+02
58              	3.25497162e+02
59              	3.25749452e+02
60              	3.25992242e+02
61              	3.26224329e+02
62              	3.26455198e+02
63              	3.26676139e+02
64              	3.26902718e+02
65              	3.27140752e+02
66              	3.27389170e+02
67              	3.27637943e+02
68              	3.27880127e+02
69              	3.28121295e+02
70              	3.28349502e+02
71              	3.28573411e+02
72              	3.28773288e+02
73              	3.28957794e+02
74              	3.29142439e+02
75              	3.29335493e+02
76              	3.29546792e+02
77              	3.29759549e+02
78              	3.29987193e+02
79              	3.30210798e+02
80              	3.30426783e+02
81              	3.30647125e+02
82              	3.30845798e+02
83              	3.31036940e+02
84              	3.31203503e+02
85              	3.31359916e+02
86              	3.31509260e+02
87              	3.31670943e+02
88              	3.31837256e+02
89              	3.31994819e+02
90              	3.32154543e+02
91              	3.32290639e+02
92              	3.32423539e+02
93              	3.32562183e+02
94              	3.32689580e+02
95              	3.32822658e+02
96              	3.32943332e+02
97              	3.33065501e+02
98              	3.33179992e+02
99              	3.33293785e+02
100             	3.33401850e+02
101             	3.33509231e+02
102             	3.33615874e+02
103             	3.33716537e+02
104             	3.33824083e+02
105             	3.33935753e+02
106             	3.34034207e+02
107             	3.34141237e+02
108             	3.34253437e+02
109             	3.34356539e+02
110             	3.34457583e+02
111             	3.34548318e+02
112             	3.34635187e+02
113             	3.34731054e+02
114             	3.34839832e+02
115             	3.34931603e+02
116             	3.35014522e+02
117             	3.35096220e+02
118             	3.35164812e+02
119             	3.35228398e+02
120             	3.35280083e+02
121             	3.35329120e+02
122             	3.35371530e+02
123             	3.35427291e+02
124             	3.35488929e+02
125             	3.35559014e+02
126             	3.35634921e+02
127             	3.35706100e+02
128             	3.35770214e+02
129             	3.35825528e+02
130             	3.35880536e+02
131             	3.35931678e+02
132             	3.35983211e+02
133             	3.36038399e+02
134             	3.36090885e+02
135             	3.36141437e+02
136             	3.36186678e+02
137             	3.36225675e+02
138             	3.36265780e+02
139             	3.36315242e+02
140             	3.36382068e+02
141             	3.36464178e+02
142             	3.36553180e+02
143             	3.36649444e+02
144             	3.36762075e+02
145             	3.36854413e+02
146             	3.36945463e+02
147             	3.37008875e+02
148             	3.37054077e+02
149             	3.37089119e+02
150             	3.37105392e+02
151             	3.37128598e+02
152             	3.37142424e+02
153             	3.37176702e+02
154             	3.37224282e+02
155             	3.37270874e+02
156             	3.37332995e+02
157             	3.37397460e+02
158             	3.37459925e+02
159             	3.37506244e+02
160             	3.37549908e+02
161             	3.37607711e+02
162             	3.37660874e+02
163             	3.37739731e+02
164             	3.37827352e+02
165             	3.37903154e+02
166             	3.37961308e+02
167             	3.38013883e+02
168             	3.38045098e+02
169             	3.38080747e+02
170             	3.38100342e+02
171             	3.38121373e+02
172             	3.38136988e+02
173             	3.38160010e+02
174             	3.38164600e+02
175             	3.38192074e+02
176             	3.38238830e+02
177             	3.38290848e+02
178             	3.38351748e+02
179             	3.38396676e+02
180             	3.38421625e+02
181             	3.38436866e+02
182             	3.38473535e+02
183             	3.38524391e+02
184             	3.38583963e+02
185             	3.38650923e+02
186             	3.38694379e+02
187             	3.38731013e+02
188             	3.38768717e+02
189             	3.38820754e+02
190             	3.38848431e+02
191             	3.38879366e+02
192             	3.38898092e+02
193             	3.38920708e+02
194             	3.38923498e+02
195             	3.38935014e+02
196             	3.38936773e+02
197             	3.38957246e+02
198             	3.38988247e+02
199             	3.39037088e+02
200             	3.39098760e+02
201             	3.39163855e+02
202             	3.39227475e+02
203             	3.39263698e+02
204             	3.39307953e+02
205             	3.39359474e+02
206             	3.39384253e+02
207             	3.39403898e+02
208             	3.39416070e+02
209             	3.39450910e+02
210             	3.39473709e+02
211             	3.39499295e+02
212             	3.39480821e+02
213             	3.39464537e+02
214             	3.39431870e+02
215             	3.39414076e+02
216             	3.39389423e+02
217             	3.39379343e+02
218             	3.39383850e+02
219             	3.39398351e+02
220             	3.39425697e+02
221             	3.39463048e+02
222             	3.39494879e+02
223             	3.39520120e+02
224             	3.39528513e+02
225             	3.39543073e+02
226             	3.39548089e+02
227             	3.39569886e+02
228             	3.39596059e+02
229             	3.39599226e+02
230             	3.39607613e+02
231             	3.39621639e+02
232             	3.39648925e+02
233             	3.39682364e+02
234             	3.39695035e+02
235             	3.39704076e+02
236             	3.39700751e+02
237             	3.39703892e+02
238             	3.39708633e+02
239             	3.39719825e+02
240             	3.39758847e+02
241             	3.39802389e+02
242             	3.39853311e+02
243             	3.39878047e+02
244             	3.39915442e+02
245             	3.39969816e+02
246             	3.40024780e+02
247             	3.40083568e+02
248             	3.40145297e+02
249             	3.40211908e+02
250             	3.40258870e+02
251             	3.40312733e+02
252             	3.40391115e+02
253             	3.40466566e+02
254             	3.40551229e+02
255             	3.40608988e+02
256             	3.40669524e+02
257             	3.40735921e+02
258             	3.40783263e+02
259             	3.40820663e+02
260             	3.40848682e+02
261             	3.40869558e+02
262             	3.40884332e+02
263             	3.40901762e+02
264             	3.40925485e+02
265             	3.40943378e+02
266             	3.40958139e+02
267             	3.40967958e+02
268             	3.40987384e+02
269             	3.41014950e+02
270             	3.41042701e+02
271             	3.41076644e+02
272             	3.41110867e+02
273             	3.41149821e+02
274             	3.41190331e+02
275             	3.41231363e+02
276             	3.41273112e+02
277             	3.41314630e+02
278             	3.41355832e+02
279             	3.41379111e+02
280             	3.41394974e+02
281             	3.41413515e+02
282             	3.41432981e+02
283             	3.41456239e+02
284             	3.41477086e+02
285             	3.41492006e+02
286             	3.41509799e+02
287             	3.41520078e+02
288             	3.41537522e+02
289             	3.41563076e+02
290             	3.41588755e+02
291             	3.41614387e+02
292             	3.41638800e+02
293             	3.41668016e+02
294             	3.41691455e+02
295             	3.41718197e+02
296             	3.41747645e+02
297             	3.41778239e+02
298             	3.41810870e+02
299             	3.41844780e+02
300             	3.41875677e+02
301             	3.41901109e+02
302             	3.41916300e+02
303             	3.41926912e+02
304             	3.41933578e+02
305             	3.41937989e+02
306             	3.41939047e+02
307             	3.41947231e+02
308             	3.41954802e+02
309             	3.41965328e+02
310             	3.41975261e+02
311             	3.41990505e+02
312             	3.41991110e+02
313             	3.41999429e+02
314             	3.41999996e+02
315             	3.42000606e+02
316             	3.41995128e+02
317             	3.42001902e+02
318             	3.42015478e+02
319             	3.42022002e+02
320             	3.42035430e+02
321             	3.42045395e+02
322             	3.42060015e+02
323             	3.42078690e+02
324             	3.42097012e+02
325             	3.42110630e+02
326             	3.42126520e+02
327             	3.42147839e+02
328             	3.42171562e+02
329             	3.42185991e+02
330             	3.42196305e+02
331             	3.42211247e+02
332             	3.42229785e+02
333             	3.42247301e+02
334             	3.42260276e+02
335             	3.42262864e+02
336             	3.42260350e+02
337             	3.42264225e+02
338             	3.42274909e+02
339             	3.42290109e+02
340             	3.42296910e+02
341             	3.42305961e+02
342             	3.42319594e+02
343             	3.42325014e+02
344             	3.42331923e+02
345             	3.42336192e+02
346             	3.42338918e+02
347             	3.42333994e+02
348             	3.42331827e+02
349             	3.42321711e+02
350             	3.42313035e+02
351             	3.42307376e+02
352             	3.42307991e+02
353             	3.42306402e+02
354             	3.42307726e+02
355             	3.42310634e+02
356             	3.42315851e+02
357             	3.42325131e+02
358             	3.42337960e+02
359             	3.42349187e+02
360             	3.42365417e+02
361             	3.42384540e+02
362             	3.42391238e+02
363             	3.42399456e+02
364             	3.42409915e+02
365             	3.42417864e+02
366             	3.42414709e+02
367             	3.42410354e+02
368             	3.42413784e+02
369             	3.42413294e+02
370             	3.42411661e+02
371             	3.42409641e+02
372             	3.42411338e+02
373             	3.42409619e+02
374             	3.42414400e+02
375             	3.42423165e+02
376             	3.42434035e+02
377             	3.42444612e+02
378             	3.42453109e+02
379             	3.42465398e+02
380             	3.42479138e+02
381             	3.42491596e+02
382             	3.42500443e+02
383             	3.42503363e+02
384             	3.42503117e+02
385             	3.42505308e+02
386             	3.42505781e+02
387             	3.42503629e+02
388             	3.42504123e+02
389             	3.42502867e+02
390             	3.42503454e+02
391             	3.42503701e+02
392             	3.42505550e+02
393             	3.42509844e+02
394             	3.42516589e+02
395             	3.42524732e+02
396             	3.42534004e+02
397             	3.42543914e+02
398             	3.42548490e+02
399             	3.42554363e+02
400             	3.42560657e+02
401             	3.42569962e+02
402             	3.42577767e+02
403             	3.42582914e+02
404             	3.42586193e+02
405             	3.42588910e+02
406             	3.42591728e+02
407             	3.42593603e+02
408             	3.42595330e+02
409             	3.42597345e+02
410             	3.42600178e+02
411             	3.42600355e+02
412             	3.42600902e+02
413             	3.42601912e+02
414             	3.42603304e+02
415             	3.42605129e+02
416             	3.42607821e+02
417             	3.42610643e+02
418             	3.42613503e+02
419             	3.42616392e+02
420             	3.42618352e+02
421             	3.42619164e+02
422             	3.42621232e+02
423             	3.42623522e+02
424             	3.42625832e+02
425             	3.42627852e+02
426             	3.42630292e+02
427             	3.42632968e+02
428             	3.42635427e+02
429             	3.42637354e+02
430             	3.42638383e+02
431             	3.42639890e+02
432             	3.42641232e+02
433             	3.42643230e+02
434             	3.42644887e+02
435             	3.42646494e+02
436             	3.42648410e+02
437             	3.42650928e+02
438             	3.42653848e+02
439             	3.42656300e+02
440             	3.42659055e+02
441             	3.42662440e+02
442             	3.42665715e+02
443             	3.42668064e+02
444             	3.42670830e+02
445             	3.42673856e+02
446             	3.42674655e+02
447             	3.42675472e+02
448             	3.42675964e+02
449             	3.42677113e+02
450             	3.42677281e+02
451             	3.42678271e+02
452             	3.42678434e+02
453             	3.42678224e+02
454             	3.42679197e+02
455             	3.42680914e+02
456             	3.42682432e+02
457             	3.42684077e+02
458             	3.42685218e+02
459             	3.42686646e+02
460             	3.42688629e+02
461             	3.42691010e+02
462             	3.42693292e+02
463             	3.42694892e+02
464             	3.42697688e+02
465             	3.42698717e+02
466             	3.42700587e+02
467             	3.42702595e+02
468             	3.42704816e+02
469             	3.42707433e+02
470             	3.42709786e+02
471             	3.42712515e+02
472             	3.42715316e+02
473             	3.42718376e+02
474             	3.42721653e+02
475             	3.42725013e+02
476             	3.42728818e+02
477             	3.42732569e+02
478             	3.42736292e+02
479             	3.42739970e+02
480             	3.42743467e+02
481             	3.42746866e+02
482             	3.42750691e+02
483             	3.42754584e+02
484             	3.42758577e+02
485             	3.42762739e+02
486             	3.42767111e+02
487             	3.42771423e+02
488             	3.42775400e+02
489             	3.42778860e+02
490             	3.42781758e+02
491             	3.42784257e+02
492             	3.42786364e+02
493             	3.42788317e+02
494             	3.42790415e+02
495             	3.42793092e+02
496             	3.42796327e+02
497             	3.42798170e+02
498             	3.42800017e+02
499             	3.42802075e+02
500             	3.42803854e+02
501             	3.42804705e+02
502             	3.42805914e+02
503             	3.42806186e+02
504             	3.42806831e+02
505             	3.42807193e+02
506             	3.42807450e+02
507             	3.42807799e+02
508             	3.42808774e+02
509             	3.42809601e+02
510             	3.42811473e+02
511             	3.42813583e+02
512             	3.42815867e+02
513             	3.42818402e+02
514             	3.42820180e+02
515             	3.42820384e+02
516             	3.42821187e+02
517             	3.42822684e+02
518             	3.42823479e+02
519             	3.42823503e+02
520             	3.42823720e+02
521             	3.42824526e+02
522             	3.42824888e+02
523             	3.42825083e+02
524             	3.42825914e+02
525             	3.42827387e+02
526             	3.42828873e+02
527             	3.42830342e+02
528             	3.42832076e+02
529             	3.42833948e+02
530             	3.42835782e+02
531             	3.42837389e+02
532             	3.42838644e+02
533             	3.42839632e+02
534             	3.42839794e+02
535             	3.42840131e+02
536             	3.42839636e+02
537             	3.42839809e+02
538             	3.42839379e+02
539             	3.42839531e+02
540             	3.42839928e+02
541             	3.42840743e+02
542             	3.42841742e+02
543             	3.42842989e+02
544             	3.42844150e+02
545             	3.42845801e+02
546             	3.42847854e+02
547             	3.42851802e+02
548             	3.42855618e+02
549             	3.42859089e+02
550             	3.42861934e+02
551             	3.42865238e+02
552             	3.42868811e+02
553             	3.42872070e+02
554             	3.42874659e+02
555             	3.42875981e+02
556             	3.42876425e+02
557             	3.42876704e+02
558             	3.42876610e+02
559             	3.42876520e+02
560             	3.42876310e+02
561             	3.42875753e+02
562             	3.42875091e+02
563             	3.42874950e+02
564             	3.42877291e+02
565             	3.42879563e+02
566             	3.42882118e+02
567             	3.42883263e+02
568             	3.42885027e+02
569             	3.42885052e+02
570             	3.42885982e+02
571             	3.42887256e+02
572             	3.42889628e+02
573             	3.42892321e+02
574             	3.42894352e+02
575             	3.42896256e+02
576             	3.42897651e+02
577             	3.42898630e+02
578             	3.42900058e+02
579             	3.42901613e+02
580             	3.42901508e+02
581             	3.42901094e+02
582             	3.42899117e+02
583             	3.42898003e+02
584             	3.42897723e+02
585             	3.42896615e+02
586             	3.42895150e+02
587             	3.42894070e+02
588             	3.42892541e+02
589             	3.42890999e+02
590             	3.42890086e+02
591             	3.42889198e+02
592             	3.42889623e+02
593             	3.42890661e+02
594             	3.42892133e+02
595             	3.42893961e+02
596             	3.42894952e+02
597             	3.42894907e+02
598             	3.42895110e+02
599             	3.42896896e+02
600             	3.42898393e+02
601             	3.42898984e+02
602             	3.42898526e+02
603             	3.42896883e+02
604             	3.42895616e+02
605             	3.42894548e+02
606             	3.42893077e+02
607             	3.42892554e+02
608             	3.42892945e+02
609             	3.42893866e+02
610             	3.42894623e+02
611             	3.42895912e+02
612             	3.42897440e+02
613             	3.42898194e+02
614             	3.42900083e+02
615             	3.42902101e+02
616             	3.42903797e+02
617             	3.42904994e+02
618             	3.42905110e+02
619             	3.42906630e+02
620             	3.42907856e+02
621             	3.42908943e+02
622             	3.42910152e+02
623             	3.42911613e+02
624             	3.42913300e+02
625             	3.42915171e+02
626             	3.42916829e+02
627             	3.42918457e+02
628             	3.42919114e+02
629             	3.42919478e+02
630             	3.42920337e+02
631             	3.42921772e+02
632             	3.42922538e+02
633             	3.42922950e+02
634             	3.42923459e+02
635             	3.42924183e+02
636             	3.42925283e+02
637             	3.42926585e+02
638             	3.42927631e+02
639             	3.42928273e+02
640             	3.42928513e+02
641             	3.42928786e+02
642             	3.42928360e+02
643             	3.42927643e+02
644             	3.42927311e+02
645             	3.42927371e+02
646             	3.42926764e+02
647             	3.42925776e+02
648             	3.42924992e+02
649             	3.42924089e+02
650             	3.42923302e+02
651             	3.42922842e+02
652             	3.42922987e+02
653             	3.42923642e+02
654             	3.42924762e+02
655             	3.42926386e+02
656             	3.42928550e+02
657             	3.42930495e+02
658             	3.42932678e+02
659             	3.42934889e+02
660             	3.42935977e+02
661             	3.42936377e+02
662             	3.42937005e+02
663             	3.42937604e+02
664             	3.42937896e+02
665             	3.42938084e+02
666             	3.42938471e+02
667             	3.42939786e+02
668             	3.42941367e+02
669             	3.42942927e+02
670             	3.42944683e+02
671             	3.42946735e+02
672             	3.42949012e+02
673             	3.42950852e+02
674             	3.42951776e+02
675             	3.42953045e+02
676             	3.42954213e+02
677             	3.42954657e+02
678             	3.42954394e+02
679             	3.42953825e+02
680             	3.42952894e+02
681             	3.42952366e+02
682             	3.42951711e+02
683             	3.42950706e+02
684             	3.42949439e+02
685             	3.42948096e+02
686             	3.42946942e+02
687             	3.42945698e+02
688             	3.42944639e+02
689             	3.42943743e+02
690             	3.42942992e+02
691             	3.42942647e+02
692             	3.42942628e+02
693             	3.42942806e+02
694             	3.42943237e+02
695             	3.42944209e+02
696             	3.42945150e+02
697             	3.42945954e+02
698             	3.42946765e+02
699             	3.42947622e+02
700             	3.42948413e+02
701             	3.42948901e+02
702             	3.42949759e+02
703             	3.42948931e+02
704             	3.42948483e+02
705             	3.42948260e+02
706             	3.42947708e+02
707             	3.42947709e+02
708             	3.42948035e+02
709             	3.42948618e+02
710             	3.42949226e+02
711             	3.42950050e+02
712             	3.42950976e+02
713             	3.42951671e+02
714             	3.42951953e+02
715             	3.42952915e+02
716             	3.42952671e+02
717             	3.42952323e+02
718             	3.42952463e+02
719             	3.42952174e+02
720             	3.42952238e+02
721             	3.42952372e+02
722             	3.42952272e+02
723             	3.42951860e+02
724             	3.42952448e+02
725             	3.42953153e+02
726             	3.42954516e+02
727             	3.42955948e+02
728             	3.42956939e+02
729             	3.42958194e+02
730             	3.42959715e+02
731             	3.42961291e+02
732             	3.42962777e+02
733             	3.42963474e+02
734             	3.42963491e+02
735             	3.42962901e+02
736             	3.42962367e+02
737             	3.42961906e+02
738             	3.42961914e+02
739             	3.42961725e+02
740             	3.42962594e+02
741             	3.42963375e+02
742             	3.42964622e+02
743             	3.42965561e+02
744             	3.42966752e+02
745             	3.42968044e+02
746             	3.42969393e+02
747             	3.42970746e+02
748             	3.42971993e+02
749             	3.42972325e+02
750             	3.42972390e+02
751             	3.42972523e+02
752             	3.42971866e+02
753             	3.42970894e+02
754             	3.42969729e+02
755             	3.42968397e+02
756             	3.42967553e+02
757             	3.42966838e+02
758             	3.42965939e+02
759             	3.42964938e+02
760             	3.42963420e+02
761             	3.42962058e+02
762             	3.42960783e+02
763             	3.42959315e+02
764             	3.42958917e+02
765             	3.42958407e+02
766             	3.42957767e+02
767             	3.42957225e+02
768             	3.42957040e+02
769             	3.42956801e+02
770             	3.42956632e+02
771             	3.42956500e+02
772             	3.42956542e+02
773             	3.42956828e+02
774             	3.42957603e+02
775             	3.42958228e+02
776             	3.42958918e+02
777             	3.42959253e+02
778             	3.42959521e+02
779             	3.42960054e+02
780             	3.42961053e+02
781             	3.42962197e+02
782             	3.42963088e+02
783             	3.42963872e+02
784             	3.42964722e+02
785             	3.42965540e+02
786             	3.42965562e+02
787             	3.42965689e+02
788             	3.42965820e+02
789             	3.42965985e+02
790             	3.42966006e+02
791             	3.42966076e+02
792             	3.42966360e+02
793             	3.42966411e+02
794             	3.42966168e+02
795             	3.42965816e+02
796             	3.42965621e+02
797             	3.42965434e+02
798             	3.42965168e+02
799             	3.42965210e+02
800             	3.42965759e+02
801             	3.42966383e+02
802             	3.42966966e+02
803             	3.42967645e+02
804             	3.42968054e+02
805             	3.42968764e+02
806             	3.42969487e+02
807             	3.42970072e+02
808             	3.42970755e+02
809             	3.42971357e+02
810             	3.42971909e+02
811             	3.42972133e+02
812             	3.42972409e+02
813             	3.42973393e+02
814             	3.42974201e+02
815             	3.42975131e+02
816             	3.42976151e+02
817             	3.42977298e+02
818             	3.42978722e+02
819             	3.42979774e+02
820             	3.42980962e+02
821             	3.42982254e+02
822             	3.42983539e+02
823             	3.42984757e+02
824             	3.42985780e+02
825             	3.42986531e+02
826             	3.42987018e+02
827             	3.42987244e+02
828             	3.42987237e+02
829             	3.42986986e+02
830             	3.42986953e+02
831             	3.42987241e+02
832             	3.42986556e+02
833             	3.42985882e+02
834             	3.42985395e+02
835             	3.42984816e+02
836             	3.42984083e+02
837             	3.42983341e+02
838             	3.42982534e+02
839             	3.42982200e+02
840             	3.42981755e+02
841             	3.42981144e+02
842             	3.42980493e+02
843             	3.42979876e+02
844             	3.42979367e+02
845             	3.42980486e+02
846             	3.42981513e+02
847             	3.42981993e+02
848             	3.42981808e+02
849             	3.42982227e+02
850             	3.42983032e+02
851             	3.42983923e+02
852             	3.42984577e+02
853             	3.42984990e+02
854             	3.42985462e+02
855             	3.42985925e+02
856             	3.42986020e+02
857             	3.42985670e+02
858             	3.42985798e+02
859             	3.42986269e+02
860             	3.42986356e+02
861             	3.42986306e+02
862             	3.42986433e+02
863             	3.42986079e+02
864             	3.42986185e+02
865             	3.42986941e+02
866             	3.42987636e+02
867             	3.42988395e+02
868             	3.42989085e+02
869             	3.42989481e+02
870             	3.42989037e+02
871             	3.42988044e+02
872             	3.42987251e+02
873             	3.42986098e+02
874             	3.42985296e+02
875             	3.42984837e+02
876             	3.42983956e+02
877             	3.42982887e+02
878             	3.42981988e+02
879             	3.42981512e+02
880             	3.42981185e+02
881             	3.42981278e+02
882             	3.42981959e+02
883             	3.42982640e+02
884             	3.42983616e+02
885             	3.42984836e+02
886             	3.42986009e+02
887             	3.42986887e+02
888             	3.42987593e+02
889             	3.42988242e+02
890             	3.42988690e+02
891             	3.42988814e+02
892             	3.42988503e+02
893             	3.42988291e+02
894             	3.42987701e+02
895             	3.42986912e+02
896             	3.42986068e+02
897             	3.42985371e+02
898             	3.42985011e+02
899             	3.42985104e+02
900             	3.42984833e+02
901             	3.42984915e+02
902             	3.42985218e+02
903             	3.42985581e+02
904             	3.42985778e+02
905             	3.42985521e+02
906             	3.42985601e+02
907             	3.42985586e+02
908             	3.42985475e+02
909             	3.42985350e+02
910             	3.42985478e+02
911             	3.42985679e+02
912             	3.42986056e+02
913             	3.42986536e+02
914             	3.42986971e+02
915             	3.42987388e+02
916             	3.42987644e+02
917             	3.42987595e+02
918             	3.42988019e+02
919             	3.42989966e+02
920             	3.42991681e+02
921             	3.42992680e+02
922             	3.42993671e+02
923             	3.42994355e+02
924             	3.42995225e+02
925             	3.42996067e+02
926             	3.42996400e+02
927             	3.42996955e+02
928             	3.42997027e+02
929             	3.42996688e+02
930             	3.42995824e+02
931             	3.42994873e+02
932             	3.42993692e+02
933             	3.42992579e+02