# Region        : cellZone pcb
# Cells         : 680
# Volume        : 1.32826042e+00
# Time          	volAverage(T)
1               	3.00003079e+02
2               	3.00009211e+02
3               	3.00018181e+02
4               	3.00029690e+02
5               	3.00043049e+02
6               	3.00058469e+02
7               	3.00075915e+02
8               	3.00095363e+02
9               	3.00116631e+02
10              	3.00139416e+02
11              	3.00163709e+02
12              	3.00189487e+02
13              	3.00216636e+02
14              	3.00245337e+02
15              	3.00275282e+02
16              	3.00306298e+02
17              	3.00338511e+02
18              	3.00371461e+02
19              	3.00405371e+02
20              	3.00439888e+02
21              	3.00475271e+02
22              	3.00510775e+02
23              	3.00547189e+02
24              	3.00584573e+02
25              	3.00622296e+02
26              	3.00660724e+02
27              	3.00699502e+02
28              	3.00738913e+02
29              	3.00779352e+02
30              	3.00820257e+02
31              	3.00861643e+02
32              	3.00903001e+02
33              	3.00944172e+02
34              	3.00985121e+02
35              	3.01026626e+02
36              	3.01068307e+02
37              	3.01111159e+02
38              	3.01154531e+02
39              	3.01198924e+02
40              	3.01243466e+02
41              	3.01287843e+02
42              	3.01331959e+02
43              	3.01375219e+02
44              	3.01417958e+02
45              	3.01461333e+02
46              	3.01504569e+02
47              	3.01548196e+02
48              	3.01591026e+02
49              	3.01633566e+02
50              	3.01675654e+02
51              	3.01717931e+02
52              	3.01760558e+02
53              	3.01803878e+02
54              	3.01848125e+02
55              	3.01892258e+02
56              	3.01935815e+02
57              	3.01977741e+02
58              	3.02018491e+02
59              	3.02059984e+02
60              	3.02101741e+02
61              	3.02142760e+02
62              	3.02184221e+02
63              	3.02225863e+02
64              	3.02266567e+02
65              	3.02306280e+02
66              	3.02346225e+02
67              	3.02386278e+02
68              	3.02426154e+02
69              	3.02465751e+02
70              	3.02505345e+02
71              	3.02544850e+02
72              	3.02585565e+02
73              	3.02625352e+02
74              	3.02663472e+02
75              	3.02701803e+02
76              	3.02738637e+02
77              	3.02775844e+02
78              	3.02813991e+02
79              	3.02851687e+02
80              	3.02888990e+02
81              	3.02927164e+02
82              	3.02962568e+02
83              	3.02997372e+02
84              	3.03032123e+02
85              	3.03065632e+02
86              	3.03098867e+02
87              	3.03131286e+02
88              	3.03165668e+02
89              	3.03199723e+02
90              	3.03233510e+02
91              	3.03265625e+02
92              	3.03296311e+02
93              	3.03326660e+02
94              	3.03357537e+02
95              	3.03388816e+02
96              	3.03420087e+02
97              	3.03450606e+02
98              	3.03481017e+02
99              	3.03511366e+02
100             	3.03541397e+02
101             	3.03572707e+02
102             	3.03603551e+02
103             	3.03633474e+02
104             	3.03663262e+02
105             	3.03692938e+02
106             	3.03721325e+02
107             	3.03749977e+02
108             	3.03778213e+02
109             	3.03806471e+02
110             	3.03835902e+02
111             	3.03864627e+02
112             	3.03892003e+02
113             	3.03920304e+02
114             	3.03948003e+02
115             	3.03975189e+02
116             	3.04002134e+02
117             	3.04028305e+02
118             	3.04053610e+02
119             	3.04078716e+02
120             	3.04104699e+02
121             	3.04130705e+02
122             	3.04156448e+02
123             	3.04182648e+02
124             	3.04208449e+02
125             	3.04232708e+02
126             	3.04256581e+02
127             	3.04281618e+02
128             	3.04305982e+02
129             	3.04330112e+02
130             	3.04354595e+02
131             	3.04378928e+02
132             	3.04401144e+02
133             	3.04422760e+02
134             	3.04444443e+02
135             	3.04464819e+02
136             	3.04487221e+02
137             	3.04509135e+02
138             	3.04531724e+02
139             	3.04555195e+02
140             	3.04578696e+02
141             	3.04600827e+02
142             	3.04622396e+02
143             	3.04644544e+02
144             	3.04665023e+02
145             	3.04683443e+02
146             	3.04701916e+02
147             	3.04719917e+02
148             	3.04740138e+02
149             	3.04760665e+02
150             	3.04780846e+02
151             	3.04802258e+02
152             	3.04823938e+02
153             	3.04843288e+02
154             	3.04861901e+02
155             	3.04880112e+02
156             	3.04898853e+02
157             	3.04918241e+02
158             	3.04937143e+02
159             	3.04956050e+02
160             	3.04975123e+02
161             	3.04992881e+02
162             	3.05011978e+02
163             	3.05030024e+02
164             	3.05048182e+02
165             	3.05069027e+02
166             	3.05090399e+02
167             	3.05110407e+02
168             	3.05128165e+02
169             	3.05144409e+02
170             	3.05161444e+02
171             	3.05179089e+02
172             	3.05197691e+02
173             	3.05216554e+02
174             	3.05235346e+02
175             	3.05253101e+02
176             	3.05271313e+02
177             	3.05291000e+02
178             	3.05311127e+02
179             	3.05330560e+02
180             	3.05347420e+02
181             	3.05363912e+02
182             	3.05381141e+02
183             	3.05399396e+02
184             	3.05416408e+02
185             	3.05434155e+02
186             	3.05452179e+02
187             	3.05469897e+02
188             	3.05487358e+02
189             	3.05504107e+02
190             	3.05520345e+02
191             	3.05536539e+02
192             	3.05553048e+02
193             	3.05570148e+02
194             	3.05587246e+02
195             	3.05604530e+02
196             	3.05621640e+02
197             	3.05638812e+02
198             	3.05655971e+02
199             	3.05672576e+02
200             	3.05690606e+02
201             	3.05708398e+02
202             	3.05725153e+02
203             	3.05742504e+02
204             	3.05760348e+02
205             	3.05777509e+02
206             	3.05794500e+02
207             	3.05811356e+02
208             	3.05828443e+02
209             	3.05845547e+02
210             	3.05862259e+02
211             	3.05878423e+02
212             	3.05894180e+02
213             	3.05911175e+02
214             	3.05928318e+02
215             	3.05945875e+02
216             	3.05963619e+02
217             	3.05980341e+02
218             	3.05996989e+02
219             	3.06014302e+02
220             	3.06031227e+02
221             	3.06048113e+02
222             	3.06065511e+02
223             	3.06082393e+02
224             	3.06098708e+02
225             	3.06116280e+02
226             	3.06133677e+02
227             	3.06149776e+02
228             	3.06166265e+02
229             	3.06182304e+02
230             	3.06198268e+02
231             	3.06214617e+02
232             	3.06231454e+02
233             	3.06248409e+02
234             	3.06264916e+02
235             	3.06280733e+02
236             	3.06298037e+02
237             	3.06315261e+02
238             	3.06331649e+02
239             	3.06348937e+02
240             	3.06365623e+02
241             	3.06381776e+02
242             	3.06397126e+02
243             	3.06412159e+02
244             	3.06427367e+02
245             	3.06442524e+02
246             	3.06457890e+02
247             	3.06473473e+02
248             	3.06489129e+02
249             	3.06505032e+02
250             	3.06520025e+02
251             	3.06535435e+02
252             	3.06550160e+02
253             	3.06564729e+02
254             	3.06579246e+02
255             	3.06593789e+02
256             	3.06608957e+02
257             	3.06624389e+02
258             	3.06639795e+02
259             	3.06655090e+02
260             	3.06669743e+02
261             	3.06684327e+02
262             	3.06699004e+02
263             	3.06713913e+02
264             	3.06729017e+02
265             	3.06744326e+02
266             	3.06759449e+02
267             	3.06774431e+02
268             	3.06789421e+02
269             	3.06804188e+02
270             	3.06818899e+02
271             	3.06833166e+02
272             	3.06847136e+02
273             	3.06860911e+02
274             	3.06874789e+02
275             	3.06888828e+02
276             	3.06902674e+02
277             	3.06916670e+02
278             	3.06930708e+02
279             	3.06944694e+02
280             	3.06958710e+02
281             	3.06972881e+02
282             	3.06986149e+02
283             	3.06999685e+02
284             	3.07012435e+02
285             	3.07025330e+02
286             	3.07038048e+02
287             	3.07050396e+02
288             	3.07062454e+02
289             	3.07074561e+02
290             	3.07087084e+02
291             	3.07099922e+02
292             	3.07112944e+02
293             	3.07125808e+02
294             	3.07138718e+02
295             	3.07151623e+02
296             	3.07164190e+02
297             	3.07176623e+02
298             	3.07188936e+02
299             	3.07200981e+02
300             	3.07212807e+02
301             	3.07224483e+02
302             	3.07236034e+02
303             	3.07247506e+02
304             	3.07258908e+02
305             	3.07270623e+02
306             	3.07282604e+02
307             	3.07294489e+02
308             	3.07306724e+02
309             	3.07318011e+02
310             	3.07329019e+02
311             	3.07339771e+02
312             	3.07349908e+02
313             	3.07360163e+02
314             	3.07370492e+02
315             	3.07380992e+02
316             	3.07392233e+02
317             	3.07403467e+02
318             	3.07414703e+02
319             	3.07425993e+02
320             	3.07437240e+02
321             	3.07448298e+02
322             	3.07458263e+02
323             	3.07468754e+02
324             	3.07478434e+02
325             	3.07488276e+02
326             	3.07498121e+02
327             	3.07507796e+02
328             	3.07517889e+02
329             	3.07528451e+02
330             	3.07539380e+02
331             	3.07550104e+02
332             	3.07560690e+02
333             	3.07571301e+02
334             	3.07581227e+02
335             	3.07590261e+02
336             	3.07598777e+02
337             	3.07607406e+02
338             	3.07616358e+02
339             	3.07625609e+02
340             	3.07635379e+02
341             	3.07645167e+02
342             	3.07655074e+02
343             	3.07664773e+02
344             	3.07674302e+02
345             	3.07682903e+02
346             	3.07691481e+02
347             	3.07699319e+02
348             	3.07707721e+02
349             	3.07715760e+02
350             	3.07723688e+02
351             	3.07731771e+02
352             	3.07740507e+02
353             	3.07749632e+02
354             	3.07758887e+02
355             	3.07767889e+02
356             	3.07776845e+02
357             	3.07785241e+02
358             	3.07793040e+02
359             	3.07800537e+02
360             	3.07807833e+02
361             	3.07815133e+02
362             	3.07822748e+02
363             	3.07830573e+02
364             	3.07838538e+02
365             	3.07846624e+02
366             	3.07854662e+02
367             	3.07862522e+02
368             	3.07870109e+02
369             	3.07877357e+02
370             	3.07884433e+02
371             	3.07891350e+02
372             	3.07897976e+02
373             	3.07904647e+02
374             	3.07911517e+02
375             	3.07918540e+02
376             	3.07925422e+02
377             	3.07932164e+02
378             	3.07939083e+02
379             	3.07945860e+02
380             	3.07952465e+02
381             	3.07959079e+02
382             	3.07965266e+02
383             	3.07971409e+02
384             	3.07977555e+02
385             	3.07983754e+02
386             	3.07990070e+02
387             	3.07996624e+02
388             	3.08003124e+02
389             	3.08009725e+02
390             	3.08016189e+02
391             	3.08022446e+02
392             	3.08028565e+02
393             	3.08034570e+02
394             	3.08040448e+02
395             	3.08046252e+02
396             	3.08052125e+02
397             	3.08058209e+02
398             	3.08064253e+02
399             	3.08070412e+02
400             	3.08076408e+02
401             	3.08082273e+02
402             	3.08088268e+02
403             	3.08094262e+02
404             	3.08100022e+02
405             	3.08105516e+02
406             	3.08110976e+02
407             	3.08116292e+02
408             	3.08121422e+02
409             	3.08126684e+02
410             	3.08132021e+02
411             	3.08137233e+02
412             	3.08142412e+02
413             	3.08148022e+02
414             	3.08153645e+02
415             	3.08159109e+02
416             	3.08164421e+02
417             	3.08168994e+02
418             	3.08173722e+02
419             	3.08178452e+02
420             	3.08183149e+02
421             	3.08187780e+02
422             	3.08192452e+02
423             	3.08197353e+02
424             	3.08202230e+02
425             	3.08207224e+02
426             	3.08212082e+02
427             	3.08216898e+02
428             	3.08221709e+02
429             	3.08226429e+02
430             	3.08231099e+02
431             	3.08235570e+02
432             	3.08239887e+02
433             	3.08244099e+02
434             	3.08248308e+02
435             	3.08252686e+02
436             	3.08257111e+02
437             	3.08261520e+02
438             	3.08265854e+02
439             	3.08270088e+02
440             	3.08274165e+02
441             	3.08278099e+02
442             	3.08282009e+02
443             	3.08285912e+02
444             	3.08289787e+02
445             	3.08293565e+02
446             	3.08297452e+02
447             	3.08301346e+02
448             	3.08305245e+02
449             	3.08309189e+02
450             	3.08313082e+02
451             	3.08317006e+02
452             	3.08320817e+02
453             	3.08324735e+02
454             	3.08328687e+02
455             	3.08332536e+02
456             	3.08336262e+02
457             	3.08339926e+02
458             	3.08343477e+02
459             	3.08346960e+02
460             	3.08350414e+02
461             	3.08353836e+02
462             	3.08357124e+02
463             	3.08360407e+02
464             	3.08363666e+02
465             	3.08367006e+02
466             	3.08370362e+02
467             	3.08373709e+02
468             	3.08377070e+02
469             	3.08380450e+02
470             	3.08383812e+02
471             	3.08387127e+02
472             	3.08390359e+02
473             	3.08393597e+02
474             	3.08396692e+02
475             	3.08399685e+02
476             	3.08402635e+02
477             	3.08405603e+02
478             	3.08408627e+02
479             	3.08411826e+02
480             	3.08415139e+02
481             	3.08418380e+02
482             	3.08421324e+02
483             	3.08424172e+02
484             	3.08427071e+02
485             	3.08430011e+02
486             	3.08432973e+02
487             	3.08435887e+02
488             	3.08438787e+02
489             	3.08441675e+02
490             	3.08444546e+02
491             	3.08447368e+02
492             	3.08450145e+02
493             	3.08452839e+02
494             	3.08455465e+02
495             	3.08458103e+02
496             	3.08460740e+02
497             	3.08463307e+02
498             	3.08465754e+02
499             	3.08468097e+02
500             	3.08470396e+02
501             	3.08472693e+02
502             	3.08474992e+02
503             	3.08477277e+02
504             	3.08479660e+02
505             	3.08482040e+02
506             	3.08484403e+02
507             	3.08486702e+02
508             	3.08489014e+02
509             	3.08491278e+02
510             	3.08493554e+02
511             	3.08495797e+02
512             	3.08497945e+02
513             	3.08500138e+02
514             	3.08502280e+02
515             	3.08504383e+02
516             	3.08506399e+02
517             	3.08508473e+02
518             	3.08510613e+02
519             	3.08512778e+02
520             	3.08515035e+02
521             	3.08517303e+02
522             	3.08519547e+02
523             	3.08521699e+02
524             	3.08523871e+02
525             	3.08525902e+02
526             	3.08527967e+02
527             	3.08530065e+02
528             	3.08532190e+02
529             	3.08534245e+02
530             	3.08536264e+02
531             	3.08538279e+02
532             	3.08540303e+02
533             	3.08542312e+02
534             	3.08544263e+02
535             	3.08546175e+02
536             	3.08548049e+02
537             	3.08549879e+02
538             	3.08551681e+02
539             	3.08553464e+02
540             	3.08555245e+02
541             	3.08556962e+02
542             	3.08558621e+02
543             	3.08560277e+02
544             	3.08561904e+02
545             	3.08563504e+02
546             	3.08565087e+02
547             	3.08566715e+02
548             	3.08568372e+02
549             	3.08570076e+02
550             	3.08571783e+02
551             	3.08573487e+02
552             	3.08575103e+02
553             	3.08576714e+02
554             	3.08578239e+02
555             	3.08579540e+02
556             	3.08580881e+02
557             	3.08582292e+02
558             	3.08583718e+02
559             	3.08585092e+02
560             	3.08586558e+02
561             	3.08588017e+02
562             	3.08589500e+02
563             	3.08590993e+02
564             	3.08592466e+02
565             	3.08593903e+02
566             	3.08595279e+02
567             	3.08596586e+02
568             	3.08597956e+02
569             	3.08599259e+02
570             	3.08600445e+02
571             	3.08601491e+02
572             	3.08602459e+02
573             	3.08603418e+02
574             	3.08604304e+02
575             	3.08605462e+02
576             	3.08607001e+02
577             	3.08608635e+02
578             	3.08610206e+02
579             	3.08611746e+02
580             	3.08613145e+02
581             	3.08614489e+02
582             	3.08615643e+02
583             	3.08616559e+02
584             	3.08617382e+02
585             	3.08618280e+02
586             	3.08619353e+02
587             	3.08620656e+02
588             	3.08622009e+02
589             	3.08623339e+02
590             	3.08624661e+02
591             	3.08625965e+02
592             	3.08627215e+02
593             	3.08628301e+02
594             	3.08629220e+02
595             	3.08630082e+02
596             	3.08631139e+02
597             	3.08632067e+02
598             	3.08633012e+02
599             	3.08634067e+02
600             	3.08635183e+02
601             	3.08636336e+02
602             	3.08637433e+02
603             	3.08638239e+02
604             	3.08639186e+02
605             	3.08640221e+02
606             	3.08641124e+02
607             	3.08641872e+02
608             	3.08642590e+02
609             	3.08643674e+02
610             	3.08644781e+02
611             	3.08645852e+02
612             	3.08646898e+02
613             	3.08647894e+02
614             	3.08648886e+02
615             	3.08649779e+02
616             	3.08650523e+02
617             	3.08651156e+02
618             	3.08651792e+02
619             	3.08652489e+02
620             	3.08653330e+02
621             	3.08654136e+02
622             	3.08655052e+02
623             	3.08656082e+02
624             	3.08657130e+02
625             	3.08658144e+02
626             	3.08659109e+02
627             	3.08659991e+02
628             	3.08660854e+02
629             	3.08661546e+02
630             	3.08662019e+02
631             	3.08662447e+02
632             	3.08663034e+02
633             	3.08663874e+02
634             	3.08664793e+02
635             	3.08665666e+02
636             	3.08666573e+02
637             	3.08667462e+02
638             	3.08668249e+02
639             	3.08668868e+02
640             	3.08669360e+02
641             	3.08669773e+02
642             	3.08670169e+02
643             	3.08670700e+02
644             	3.08671334e+02
645             	3.08672152e+02
646             	3.08672892e+02
647             	3.08673662e+02
648             	3.08674514e+02
649             	3.08675363e+02
650             	3.08676121e+02
651             	3.08676757e+02
652             	3.08677268e+02
653             	3.08677704e+02
654             	3.08678170e+02
655             	3.08678708e+02
656             	3.08679364e+02
657             	3.08680082e+02
658             	3.08680830e+02
659             	3.08681544e+02
660             	3.08682233e+02
661             	3.08682908e+02
662             	3.08683548e+02
663             	3.08684100e+02
664             	3.08684616e+02
665             	3.08685131e+02
666             	3.08685655e+02
667             	3.08686210e+02
668             	3.08686798e+02
669             	3.08687396e+02
670             	3.08687990e+02
671             	3.08688542e+02
672             	3.08689065e+02
673             	3.08689542e+02
674             	3.08689943e+02
675             	3.08690329e+02
676             	3.08690733e+02
677             	3.08691164e+02
678             	3.08691648e+02
679             	3.08692192e+02
680             	3.08692773e+02
681             	3.08693361e+02
682             	3.08693932e+02
683             	3.08694467e+02
684             	3.08694964e+02
685             	3.08695456e+02
686             	3.08695932e+02
687             	3.08696384e+02
688             	3.08696826e+02
689             	3.08697233e+02
690             	3.08697675e+02
691             	3.08698156e+02
692             	3.08698673e+02
693             	3.08699169e+02
694             	3.08699665e+02
695             	3.08700174e+02
696             	3.08700674e+02
697             	3.08701145e+02
698             	3.08701583e+02
699             	3.08701986e+02
700             	3.08702378e+02
701             	3.08702738e+02
702             	3.08703124e+02
703             	3.08703552e+02
704             	3.08703994e+02
705             	3.08704447e+02
706             	3.08704901e+02
707             	3.08705342e+02
708             	3.08705773e+02
709             	3.08706191e+02
710             	3.08706591e+02
711             	3.08706969e+02
712             	3.08707333e+02
713             	3.08707707e+02
714             	3.08708089e+02
715             	3.08708478e+02
716             	3.08708897e+02
717             	3.08709325e+02
718             	3.08709716e+02
719             	3.08710122e+02
720             	3.08710530e+02
721             	3.08710913e+02
722             	3.08711272e+02
723             	3.08711652e+02
724             	3.08712042e+02
725             	3.08712412e+02
726             	3.08712791e+02
727             	3.08713170e+02
728             	3.08713532e+02
729             	3.08713874e+02
730             	3.08714199e+02
731             	3.08714514e+02
732             	3.08714833e+02
733             	3.08715135e+02
734             	3.08715432e+02
735             	3.08715721e+02
736             	3.08716012e+02
737             	3.08716312e+02
738             	3.08716621e+02
739             	3.08716928e+02
740             	3.08717233e+02
741             	3.08717539e+02
742             	3.08717838e+02
743             	3.08718128e+02
744             	3.08718418e+02
745             	3.08718705e+02
746             	3.08718972e+02
747             	3.08719253e+02
748             	3.08719556e+02
749             	3.08719866e+02
750             	3.08720164e+02
751             	3.08720473e+02
752             	3.08720785e+02
753             	3.08721082e+02
754             	3.08721380e+02
755             	3.08721679e+02
756             	3.08721972e+02
757             	3.08722245e+02
758             	3.08722488e+02
759             	3.08722722e+02
760             	3.08722974e+02
761             	3.08723250e+02
762             	3.08723513e+02
763             	3.08723786e+02
764             	3.08724065e+02
765             	3.08724340e+02
766             	3.08724611e+02
767             	3.08724876e+02
768             	3.08725136e+02
769             	3.08725391e+02
770             	3.08725639e+02
771             	3.08725880e+02
772             	3.08726111e+02
773             	3.08726341e+02
774             	3.08726572e+02
775             	3.08726803e+02
776             	3.08727029e+02
777             	3.08727251e+02
778             	3.08727483e+02
779             	3.08727720e+02
780             	3.08727951e+02
781             	3.08728179e+02
782             	3.08728405e+02
783             	3.08728631e+02
784             	3.08728851e+02
785             	3.08729063e+02
786             	3.08729268e+02
787             	3.08729479e+02
788             	3.08729686e+02
789             	3.08729884e+02
790             	3.08730070e+02
791             	3.08730247e+02
792             	3.08730430e+02
793             	3.08730612e+02
794             	3.08730797e+02
795             	3.08730982e+02
796             	3.08731163e+02
797             	3.08731342e+02
798             	3.08731522e+02
799             	3.08731703e+02
800             	3.08731882e+02
801             	3.08732059e+02
802             	3.08732231e+02
803             	3.08732408e+02
804             	3.08732588e+02
805             	3.08732764e+02
806             	3.08732934e+02
807             	3.08733107e+02
808             	3.08733284e+02
809             	3.08733458e+02
810             	3.08733630e+02
811             	3.08733801e+02
812             	3.08733972e+02
813             	3.08734141e+02
814             	3.08734315e+02
815             	3.08734490e+02
816             	3.08734658e+02
817             	3.08734818e+02
818             	3.08734966e+02
819             	3.08735109e+02
820             	3.08735251e+02
821             	3.08735410e+02
822             	3.08735575e+02
823             	3.08735745e+02
824             	3.08735899e+02
825             	3.08736042e+02
826             	3.08736199e+02
827             	3.08736360e+02
828             	3.08736521e+02
829             	3.08736682e+02
830             	3.08736841e+02
831             	3.08736996e+02
832             	3.08737147e+02
833             	3.08737288e+02
834             	3.08737421e+02
835             	3.08737556e+02
836             	3.08737687e+02
837             	3.08737820e+02
838             	3.08737957e+02
839             	3.08738089e+02
840             	3.08738218e+02
841             	3.08738342e+02
842             	3.08738460e+02
843             	3.08738580e+02
844             	3.08738714e+02
845             	3.08738852e+02
846             	3.08738966e+02
847             	3.08739075e+02
848             	3.08739149e+02
849             	3.08739247e+02
850             	3.08739366e+02
851             	3.08739494e+02
852             	3.08739622e+02
853             	3.08739745e+02
854             	3.08739862e+02
855             	3.08739977e+02
856             	3.08740091e+02
857             	3.08740211e+02
858             	3.08740326e+02
859             	3.08740427e+02
860             	3.08740522e+02
861             	3.08740611e+02
862             	3.08740697e+02
863             	3.08740791e+02
864             	3.08740888e+02
865             	3.08740984e+02
866             	3.08741080e+02
867             	3.08741176e+02
868             	3.08741273e+02
869             	3.08741370e+02
870             	3.08741467e+02
871             	3.08741565e+02
872             	3.08741643e+02
873             	3.08741737e+02
874             	3.08741847e+02
875             	3.08741958e+02
876             	3.08742069e+02
877             	3.08742174e+02
878             	3.08742273e+02
879             	3.08742370e+02
880             	3.08742464e+02
881             	3.08742562e+02
882             	3.08742640e+02
883             	3.08742711e+02
884             	3.08742780e+02
885             	3.08742852e+02
886             	3.08742927e+02
887             	3.08743010e+02
888             	3.08743099e+02
889             	3.08743169e+02
890             	3.08743238e+02
891             	3.08743332e+02
892             	3.08743439e+02
893             	3.08743542e+02
894             	3.08743641e+02
895             	3.08743734e+02
896             	3.08743822e+02
897             	3.08743909e+02
898             	3.08743994e+02
899             	3.08744078e+02
900             	3.08744158e+02
901             	3.08744241e+02
902             	3.08744320e+02
903             	3.08744394e+02
904             	3.08744467e+02
905             	3.08744537e+02
906             	3.08744605e+02
907             	3.08744675e+02
908             	3.08744744e+02
909             	3.08744811e+02
910             	3.08744877e+02
911             	3.08744942e+02
912             	3.08745008e+02
913             	3.08745074e+02
914             	3.08745139e+02
915             	3.08745202e+02
916             	3.08745263e+02
917             	3.08745325e+02
918             	3.08745386e+02
919             	3.08745453e+02
920             	3.08745521e+02
921             	3.08745581e+02
922             	3.08745631e+02
923             	3.08745681e+02
924             	3.08745736e+02
925             	3.08745788e+02
926             	3.08745846e+02
927             	3.08745908e+02
928             	3.08745978e+02
929             	3.08746044e+02
930             	3.08746094e+02
931             	3.08746155e+02
932             	3.08746229e+02
933             	3.08746298e+02