# Region        : cellZone component_0
# Cells         : 56
# Volume        : 9.16449088e-02
# Time          	volAverage(T)
1               	3.03596903e+02
2               	3.07075743e+02
3               	3.09725045e+02
4               	3.11932076e+02
5               	3.14161568e+02
6               	3.16482022e+02
7               	3.18772930e+02
8               	3.20988068e+02
9               	3.23166493e+02
10              	3.25248464e+02
11              	3.27163738e+02
12              	3.28911640e+02
13              	3.30527785e+02
14              	3.32105523e+02
15              	3.33729573e+02
16              	3.35362919e+02
17              	3.36950532e+02
18              	3.38441501e+02
19              	3.39865287e+02
20              	3.41239602e+02
21              	3.42559278e+02
22              	3.43806889e+02
23              	3.44993062e+02
24              	3.46109122e+02
25              	3.47157987e+02
26              	3.48141826e+02
27              	3.49018315e+02
28              	3.49751390e+02
29              	3.50431882e+02
30              	3.51111315e+02
31              	3.51872994e+02
32              	3.52711153e+02
33              	3.53559096e+02
34              	3.54291377e+02
35              	3.54986456e+02
36              	3.55665044e+02
37              	3.56367404e+02
38              	3.57004513e+02
39              	3.57570531e+02
40              	3.58070205e+02
41              	3.58510385e+02
42              	3.58915274e+02
43              	3.59315698e+02
44              	3.59735519e+02
45              	3.60158434e+02
46              	3.60620342e+02
47              	3.61042785e+02
48              	3.61521966e+02
49              	3.62028606e+02
50              	3.62540724e+02
51              	3.63083542e+02
52              	3.63655133e+02
53              	3.64221223e+02
54              	3.64764248e+02
55              	3.65297965e+02
56              	3.65722884e+02
57              	3.66103495e+02
58              	3.66505311e+02
59              	3.66887562e+02
60              	3.67207437e+02
61              	3.67520595e+02
62              	3.67832958e+02
63              	3.68102134e+02
64              	3.68399225e+02
65              	3.68668674e+02
66              	3.68956835e+02
67              	3.69252960e+02
68              	3.69503078e+02
69              	3.69715981e+02
70              	3.69937180e+02
71              	3.70114329e+02
72              	3.70219847e+02
73              	3.70320200e+02
74              	3.70439059e+02
75              	3.70559725e+02
76              	3.70662235e+02
77              	3.70720752e+02
78              	3.70772479e+02
79              	3.70774010e+02
80              	3.70840008e+02
81              	3.70953154e+02
82              	3.71069351e+02
83              	3.71204662e+02
84              	3.71362252e+02
85              	3.71487292e+02
86              	3.71700427e+02
87              	3.71874091e+02
88              	3.71961570e+02
89              	3.72088390e+02
90              	3.72179940e+02
91              	3.72262244e+02
92              	3.72337485e+02
93              	3.72389511e+02
94              	3.72440638e+02
95              	3.72479324e+02
96              	3.72502509e+02
97              	3.72554211e+02
98              	3.72556821e+02
99              	3.72621599e+02
100             	3.72697782e+02
101             	3.72715324e+02
102             	3.72756796e+02
103             	3.72812627e+02
104             	3.72852961e+02
105             	3.72863456e+02
106             	3.72871418e+02
107             	3.72869300e+02
108             	3.72873475e+02
109             	3.72881319e+02
110             	3.72887655e+02
111             	3.72849681e+02
112             	3.72860058e+02
113             	3.72905547e+02
114             	3.72884036e+02
115             	3.72887292e+02
116             	3.72900937e+02
117             	3.72873725e+02
118             	3.72855303e+02
119             	3.72832108e+02
120             	3.72810408e+02
121             	3.72777661e+02
122             	3.72731411e+02
123             	3.72679523e+02
124             	3.72633422e+02
125             	3.72609115e+02
126             	3.72530521e+02
127             	3.72485570e+02
128             	3.72463524e+02
129             	3.72449819e+02
130             	3.72432035e+02
131             	3.72407636e+02
132             	3.72389121e+02
133             	3.72376451e+02
134             	3.72360770e+02
135             	3.72332223e+02
136             	3.72290225e+02
137             	3.72241011e+02
138             	3.72186844e+02
139             	3.72133490e+02
140             	3.72086075e+02
141             	3.72040018e+02
142             	3.71993406e+02
143             	3.71949262e+02
144             	3.71904579e+02
145             	3.71859046e+02
146             	3.71812724e+02
147             	3.71768942e+02
148             	3.71727433e+02
149             	3.71693434e+02
150             	3.71648134e+02
151             	3.71599620e+02
152             	3.71554982e+02
153             	3.71515130e+02
154             	3.71476413e+02
155             	3.71433394e+02
156             	3.71384822e+02
157             	3.71340075e+02
158             	3.71294944e+02
159             	3.71244322e+02
160             	3.71193640e+02
161             	3.71145960e+02
162             	3.71100180e+02
163             	3.71055239e+02
164             	3.71010442e+02
165             	3.70967854e+02
166             	3.70926946e+02
167             	3.70883471e+02
168             	3.70841011e+02
169             	3.70797095e+02
170             	3.70751975e+02
171             	3.70705232e+02
172             	3.70658056e+02
173             	3.70612400e+02
174             	3.70568570e+02
175             	3.70524287e+02
176             	3.70483947e+02
177             	3.70443200e+02
178             	3.70402392e+02
179             	3.70360841e+02
180             	3.70321183e+02
181             	3.70282866e+02
182             	3.70242490e+02
183             	3.70197678e+02
184             	3.70155707e+02
185             	3.70114860e+02
186             	3.70072856e+02
187             	3.70030637e+02
188             	3.69990745e+02
189             	3.69956595e+02
190             	3.69918816e+02
191             	3.69878798e+02
192             	3.69840112e+02
193             	3.69803199e+02
194             	3.69767118e+02
195             	3.69729808e+02
196             	3.69691492e+02
197             	3.69654377e+02
198             	3.69618051e+02
199             	3.69581561e+02
200             	3.69544993e+02
201             	3.69508854e+02
202             	3.69474860e+02
203             	3.69440065e+02
204             	3.69406507e+02
205             	3.69373852e+02
206             	3.69341643e+02
207             	3.69310820e+02
208             	3.69280719e+02
209             	3.69250444e+02
210             	3.69219755e+02
211             	3.69188767e+02
212             	3.69157507e+02
213             	3.69125275e+02
214             	3.69093884e+02
215             	3.69063128e+02
216             	3.69032167e+02
217             	3.69001077e+02
218             	3.68970279e+02
219             	3.68939936e+02
220             	3.68911212e+02
221             	3.68882469e+02
222             	3.68854220e+02
223             	3.68826961e+02
224             	3.68801073e+02
225             	3.68775402e+02
226             	3.68749893e+02
227             	3.68725130e+02
228             	3.68700506e+02
229             	3.68675743e+02
230             	3.68650794e+02
231             	3.68625963e+02
232             	3.68601523e+02
233             	3.68577377e+02
234             	3.68553410e+02
235             	3.68529036e+02
236             	3.68504432e+02
237             	3.68480386e+02
238             	3.68456390e+02
239             	3.68432434e+02
240             	3.68408859e+02
241             	3.68385398e+02
242             	3.68361959e+02
243             	3.68338769e+02
244             	3.68316022e+02
245             	3.68293823e+02
246             	3.68272201e+02
247             	3.68251116e+02
248             	3.68230513e+02
249             	3.68210890e+02
250             	3.68191379e+02
251             	3.68172289e+02
252             	3.68153773e+02
253             	3.68135764e+02
254             	3.68118109e+02
255             	3.68100649e+02
256             	3.68083343e+02
257             	3.68066070e+02
258             	3.68048793e+02
259             	3.68031558e+02
260             	3.68014363e+02
261             	3.67997116e+02
262             	3.67979827e+02
263             	3.67962739e+02
264             	3.67945538e+02
265             	3.67928391e+02
266             	3.67911340e+02
267             	3.67894701e+02
268             	3.67878441e+02
269             	3.67862373e+02
270             	3.67846471e+02
271             	3.67830790e+02
272             	3.67815367e+02
273             	3.67800207e+02
274             	3.67785290e+02
275             	3.67770621e+02
276             	3.67756193e+02
277             	3.67742008e+02
278             	3.67728070e+02
279             	3.67714356e+02
280             	3.67700861e+02
281             	3.67687603e+02
282             	3.67674565e+02
283             	3.67661763e+02
284             	3.67649181e+02
285             	3.67636820e+02
286             	3.67624676e+02
287             	3.67612762e+02
288             	3.67601040e+02
289             	3.67589512e+02
290             	3.67578211e+02
291             	3.67567094e+02
292             	3.67556161e+02
293             	3.67545359e+02
294             	3.67534712e+02
295             	3.67524107e+02
296             	3.67513874e+02
297             	3.67503911e+02
298             	3.67494091e+02
299             	3.67484404e+02
300             	3.67474884e+02
301             	3.67465551e+02
302             	3.67456381e+02
303             	3.67447413e+02
304             	3.67438667e+02
305             	3.67430426e+02
306             	3.67422143e+02
307             	3.67413836e+02
308             	3.67405738e+02
309             	3.67397869e+02
310             	3.67389961e+02
311             	3.67382296e+02
312             	3.67374810e+02
313             	3.67367208e+02
314             	3.67359545e+02
315             	3.67351896e+02
316             	3.67344295e+02
317             	3.67336800e+02
318             	3.67329480e+02
319             	3.67322478e+02
320             	3.67315537e+02
321             	3.67308699e+02
322             	3.67302051e+02
323             	3.67295565e+02
324             	3.67289337e+02
325             	3.67283289e+02
326             	3.67277320e+02
327             	3.67271353e+02
328             	3.67265452e+02
329             	3.67259671e+02
330             	3.67253956e+02
331             	3.67248240e+02
332             	3.67242598e+02
333             	3.67236948e+02
334             	3.67231389e+02
335             	3.67225905e+02
336             	3.67220528e+02
337             	3.67215243e+02
338             	3.67210072e+02
339             	3.67205042e+02
340             	3.67200145e+02
341             	3.67195393e+02
342             	3.67190792e+02
343             	3.67186353e+02
344             	3.67182087e+02
345             	3.67177981e+02
346             	3.67174043e+02
347             	3.67170234e+02
348             	3.67166538e+02
349             	3.67162927e+02
350             	3.67159375e+02
351             	3.67155879e+02
352             	3.67152431e+02
353             	3.67149045e+02
354             	3.67145696e+02
355             	3.67142425e+02
356             	3.67139202e+02
357             	3.67136052e+02
358             	3.67133009e+02
359             	3.67130022e+02
360             	3.67127045e+02
361             	3.67124077e+02
362             	3.67121109e+02
363             	3.67118273e+02
364             	3.67115499e+02
365             	3.67112726e+02
366             	3.67110025e+02
367             	3.67107443e+02
368             	3.67104944e+02
369             	3.67102468e+02
370             	3.67100141e+02
371             	3.67097830e+02
372             	3.67095642e+02
373             	3.67093570e+02
374             	3.67091555e+02
375             	3.67089601e+02
376             	3.67087734e+02
377             	3.67085971e+02
378             	3.67084320e+02
379             	3.67082758e+02
380             	3.67081299e+02
381             	3.67079943e+02
382             	3.67078678e+02
383             	3.67077492e+02
384             	3.67076349e+02
385             	3.67075262e+02
386             	3.67074202e+02
387             	3.67073213e+02
388             	3.67072245e+02
389             	3.67071321e+02
390             	3.67070438e+02
391             	3.67069583e+02
392             	3.67068776e+02
393             	3.67068001e+02
394             	3.67067265e+02
395             	3.67066537e+02
396             	3.67065888e+02
397             	3.67065299e+02
398             	3.67064756e+02
399             	3.67064249e+02
400             	3.67063769e+02
401             	3.67063410e+02
402             	3.67063060e+02
403             	3.67062703e+02
404             	3.67062420e+02
405             	3.67062145e+02
406             	3.67061918e+02
407             	3.67061696e+02
408             	3.67061502e+02
409             	3.67061332e+02
410             	3.67061174e+02
411             	3.67061023e+02
412             	3.67060904e+02
413             	3.67060817e+02
414             	3.67060779e+02
415             	3.67060752e+02
416             	3.67060787e+02
417             	3.67060879e+02
418             	3.67061007e+02
419             	3.67061133e+02
420             	3.67061286e+02
421             	3.67061458e+02
422             	3.67061649e+02
423             	3.67061853e+02
424             	3.67062079e+02
425             	3.67062320e+02
426             	3.67062593e+02
427             	3.67062955e+02
428             	3.67063340e+02
429             	3.67063733e+02
430             	3.67064178e+02
431             	3.67064653e+02
432             	3.67065175e+02
433             	3.67065704e+02
434             	3.67066294e+02
435             	3.67066761e+02
436             	3.67067315e+02
437             	3.67067936e+02
438             	3.67068526e+02
439             	3.67069112e+02
440             	3.67069703e+02
441             	3.67070420e+02
442             	3.67071162e+02
443             	3.67071829e+02
444             	3.67072547e+02
445             	3.67073350e+02
446             	3.67074225e+02
447             	3.67075146e+02
448             	3.67076109e+02
449             	3.67077104e+02
450             	3.67078153e+02
451             	3.67079216e+02
452             	3.67080329e+02
453             	3.67081484e+02
454             	3.67082655e+02
455             	3.67083817e+02
456             	3.67084998e+02
457             	3.67086169e+02
458             	3.67087325e+02
459             	3.67088480e+02
460             	3.67089637e+02
461             	3.67090904e+02
462             	3.67092151e+02
463             	3.67093389e+02
464             	3.67094680e+02
465             	3.67096034e+02
466             	3.67097442e+02
467             	3.67098821e+02
468             	3.67100241e+02
469             	3.67101669e+02
470             	3.67103080e+02
471             	3.67104476e+02
472             	3.67105870e+02
473             	3.67107275e+02
474             	3.67108709e+02
475             	3.67110145e+02
476             	3.67111570e+02
477             	3.67112993e+02
478             	3.67114418e+02
479             	3.67115815e+02
480             	3.67117193e+02
481             	3.67118529e+02
482             	3.67119836e+02
483             	3.67121149e+02
484             	3.67122476e+02
485             	3.67123833e+02
486             	3.67125217e+02
487             	3.67126667e+02
488             	3.67128174e+02
489             	3.67129689e+02
490             	3.67131228e+02
491             	3.67132771e+02
492             	3.67134299e+02
493             	3.67135762e+02
494             	3.67137205e+02
495             	3.67138586e+02
496             	3.67139939e+02
497             	3.67141298e+02
498             	3.67142609e+02
499             	3.67143983e+02
500             	3.67145347e+02
501             	3.67146789e+02
502             	3.67148327e+02
503             	3.67149891e+02
504             	3.67151490e+02
505             	3.67153103e+02
506             	3.67154742e+02
507             	3.67156345e+02
508             	3.67157908e+02
509             	3.67159410e+02
510             	3.67160912e+02
511             	3.67162371e+02
512             	3.67163821e+02
513             	3.67165232e+02
514             	3.67166614e+02
515             	3.67168040e+02
516             	3.67169494e+02
517             	3.67170995e+02
518             	3.67172515e+02
519             	3.67174090e+02
520             	3.67175689e+02
521             	3.67177314e+02
522             	3.67178964e+02
523             	3.67180607e+02
524             	3.67182241e+02
525             	3.67183857e+02
526             	3.67185468e+02
527             	3.67187013e+02
528             	3.67188523e+02
529             	3.67189987e+02
530             	3.67191423e+02
531             	3.67192835e+02
532             	3.67194221e+02
533             	3.67195627e+02
534             	3.67197027e+02
535             	3.67198478e+02
536             	3.67199923e+02
537             	3.67201398e+02
538             	3.67202930e+02
539             	3.67204505e+02
540             	3.67206114e+02
541             	3.67207750e+02
542             	3.67209424e+02
543             	3.67211115e+02
544             	3.67212800e+02
545             	3.67214482e+02
546             	3.67216165e+02
547             	3.67217807e+02
548             	3.67219414e+02
549             	3.67220958e+02
550             	3.67222451e+02
551             	3.67223912e+02
552             	3.67225334e+02
553             	3.67226769e+02
554             	3.67228167e+02
555             	3.67229588e+02
556             	3.67231019e+02
557             	3.67232487e+02
558             	3.67234006e+02
559             	3.67235583e+02
560             	3.67237203e+02
561             	3.67238809e+02
562             	3.67240459e+02
563             	3.67242107e+02
564             	3.67243743e+02
565             	3.67245371e+02
566             	3.67247001e+02
567             	3.67248670e+02
568             	3.67250341e+02
569             	3.67251999e+02
570             	3.67253627e+02
571             	3.67255257e+02
572             	3.67256877e+02
573             	3.67258367e+02
574             	3.67259956e+02
575             	3.67261630e+02
576             	3.67263283e+02
577             	3.67264952e+02
578             	3.67266588e+02
579             	3.67268290e+02
580             	3.67270004e+02
581             	3.67271779e+02
582             	3.67273599e+02
583             	3.67275454e+02
584             	3.67277343e+02
585             	3.67279220e+02
586             	3.67281096e+02
587             	3.67282877e+02
588             	3.67284631e+02
589             	3.67286294e+02
590             	3.67287912e+02
591             	3.67289504e+02
592             	3.67291018e+02
593             	3.67292507e+02
594             	3.67293974e+02
595             	3.67295466e+02
596             	3.67296955e+02
597             	3.67298481e+02
598             	3.67300057e+02
599             	3.67301699e+02
600             	3.67303338e+02
601             	3.67304998e+02
602             	3.67306634e+02
603             	3.67308243e+02
604             	3.67309887e+02
605             	3.67311511e+02
606             	3.67313117e+02
607             	3.67314713e+02
608             	3.67316293e+02
609             	3.67317844e+02
610             	3.67319348e+02
611             	3.67320832e+02
612             	3.67322298e+02
613             	3.67323729e+02
614             	3.67325138e+02
615             	3.67326528e+02
616             	3.67327912e+02
617             	3.67329294e+02
618             	3.67330681e+02
619             	3.67332078e+02
620             	3.67333488e+02
621             	3.67334922e+02
622             	3.67336366e+02
623             	3.67337812e+02
624             	3.67339260e+02
625             	3.67340713e+02
626             	3.67342162e+02
627             	3.67343613e+02
628             	3.67345085e+02
629             	3.67346579e+02
630             	3.67348078e+02
631             	3.67349588e+02
632             	3.67351110e+02
633             	3.67352636e+02
634             	3.67354159e+02
635             	3.67355653e+02
636             	3.67357117e+02
637             	3.67358509e+02
638             	3.67359877e+02
639             	3.67361196e+02
640             	3.67362445e+02
641             	3.67363650e+02
642             	3.67364822e+02
643             	3.67366022e+02
644             	3.67367209e+02
645             	3.67368407e+02
646             	3.67369635e+02
647             	3.67370907e+02
648             	3.67372200e+02
649             	3.67373516e+02
650             	3.67374850e+02
651             	3.67376198e+02
652             	3.67377561e+02
653             	3.67378910e+02
654             	3.67380259e+02
655             	3.67381589e+02
656             	3.67382913e+02
657             	3.67384216e+02
658             	3.67385506e+02
659             	3.67386774e+02
660             	3.67388022e+02
661             	3.67389254e+02
662             	3.67390482e+02
663             	3.67391705e+02
664             	3.67392915e+02
665             	3.67394116e+02
666             	3.67395312e+02
667             	3.67396520e+02
668             	3.67397726e+02
669             	3.67398936e+02
670             	3.67400155e+02
671             	3.67401386e+02
672             	3.67402626e+02
673             	3.67403872e+02
674             	3.67405118e+02
675             	3.67406356e+02
676             	3.67407590e+02
677             	3.67408807e+02
678             	3.67409993e+02
679             	3.67411162e+02
680             	3.67412308e+02
681             	3.67413445e+02
682             	3.67414561e+02
683             	3.67415693e+02
684             	3.67416835e+02
685             	3.67418005e+02
686             	3.67419191e+02
687             	3.67420420e+02
688             	3.67421681e+02
689             	3.67422983e+02
690             	3.67424320e+02
691             	3.67425665e+02
692             	3.67426990e+02
693             	3.67428291e+02
694             	3.67429585e+02
695             	3.67430839e+02
696             	3.67432053e+02
697             	3.67433210e+02
698             	3.67434332e+02
699             	3.67435417e+02
700             	3.67436470e+02
701             	3.67437507e+02
702             	3.67438513e+02
703             	3.67439530e+02
704             	3.67440537e+02
705             	3.67441565e+02
706             	3.67442628e+02
707             	3.67443728e+02
708             	3.67444852e+02
709             	3.67445991e+02
710             	3.67447133e+02
711             	3.67448274e+02
712             	3.67449414e+02
713             	3.67450542e+02
714             	3.67451658e+02
715             	3.67452761e+02
716             	3.67453835e+02
717             	3.67454882e+02
718             	3.67455918e+02
719             	3.67456952e+02
720             	3.67457979e+02
721             	3.67459019e+02
722             	3.67460076e+02
723             	3.67461157e+02
724             	3.67462246e+02
725             	3.67463345e+02
726             	3.67464466e+02
727             	3.67465595e+02
728             	3.67466715e+02
729             	3.67467816e+02
730             	3.67468879e+02
731             	3.67469908e+02
732             	3.67470927e+02
733             	3.67471940e+02
734             	3.67472928e+02
735             	3.67473938e+02
736             	3.67474977e+02
737             	3.67476026e+02
738             	3.67477083e+02
739             	3.67478173e+02
740             	3.67479281e+02
741             	3.67480381e+02
742             	3.67481442e+02
743             	3.67482440e+02
744             	3.67483335e+02
745             	3.67484203e+02
746             	3.67485020e+02
747             	3.67485787e+02
748             	3.67486516e+02
749             	3.67487267e+02
750             	3.67488078e+02
751             	3.67488916e+02
752             	3.67489798e+02
753             	3.67490760e+02
754             	3.67491781e+02
755             	3.67492801e+02
756             	3.67493816e+02
757             	3.67494753e+02
758             	3.67495675e+02
759             	3.67496550e+02
760             	3.67497317e+02
761             	3.67497992e+02
762             	3.67498635e+02
763             	3.67499263e+02
764             	3.67499877e+02
765             	3.67500499e+02
766             	3.67501121e+02
767             	3.67501779e+02
768             	3.67502459e+02
769             	3.67503185e+02
770             	3.67503914e+02
771             	3.67504669e+02
772             	3.67505441e+02
773             	3.67506229e+02
774             	3.67507033e+02
775             	3.67507839e+02
776             	3.67508655e+02
777             	3.67509462e+02
778             	3.67510267e+02
779             	3.67511025e+02
780             	3.67511793e+02
781             	3.67512538e+02
782             	3.67513249e+02
783             	3.67513942e+02
784             	3.67514615e+02
785             	3.67515291e+02
786             	3.67515948e+02
787             	3.67516593e+02
788             	3.67517237e+02
789             	3.67517886e+02
790             	3.67518541e+02
791             	3.67519205e+02
792             	3.67519859e+02
793             	3.67520501e+02
794             	3.67521122e+02
795             	3.67521705e+02
796             	3.67522231e+02
797             	3.67522771e+02
798             	3.67523300e+02
799             	3.67523801e+02
800             	3.67524311e+02
801             	3.67524846e+02
802             	3.67525416e+02
803             	3.67526044e+02
804             	3.67526688e+02
805             	3.67527378e+02
806             	3.67528125e+02
807             	3.67528901e+02
808             	3.67529695e+02
809             	3.67530475e+02
810             	3.67531233e+02
811             	3.67531929e+02
812             	3.67532585e+02
813             	3.67533189e+02
814             	3.67533748e+02
815             	3.67534259e+02
816             	3.67534722e+02
817             	3.67535205e+02
818             	3.67535670e+02
819             	3.67536146e+02
820             	3.67536650e+02
821             	3.67537177e+02
822             	3.67537710e+02
823             	3.67538248e+02
824             	3.67538787e+02
825             	3.67539306e+02
826             	3.67539801e+02
827             	3.67540283e+02
828             	3.67540766e+02
829             	3.67541258e+02
830             	3.67541752e+02
831             	3.67542260e+02
832             	3.67542773e+02
833             	3.67543297e+02
834             	3.67543831e+02
835             	3.67544362e+02
836             	3.67544889e+02
837             	3.67545404e+02
838             	3.67545904e+02
839             	3.67546382e+02
840             	3.67546841e+02
841             	3.67547286e+02
842             	3.67547705e+02
843             	3.67548112e+02
844             	3.67548509e+02
845             	3.67548894e+02
846             	3.67549270e+02
847             	3.67549656e+02
848             	3.67550054e+02
849             	3.67550468e+02
850             	3.67550901e+02
851             	3.67551361e+02
852             	3.67551819e+02
853             	3.67552301e+02
854             	3.67552800e+02
855             	3.67553337e+02
856             	3.67553880e+02
857             	3.67554447e+02
858             	3.67555001e+02
859             	3.67555554e+02
860             	3.67556120e+02
861             	3.67556686e+02
862             	3.67557253e+02
863             	3.67557815e+02
864             	3.67558367e+02
865             	3.67558904e+02
866             	3.67559428e+02
867             	3.67559926e+02
868             	3.67560421e+02
869             	3.67560902e+02
870             	3.67561360e+02
871             	3.67561773e+02
872             	3.67562163e+02
873             	3.67562522e+02
874             	3.67562848e+02
875             	3.67563148e+02
876             	3.67563432e+02
877             	3.67563711e+02
878             	3.67563978e+02
879             	3.67564258e+02
880             	3.67564530e+02
881             	3.67564830e+02
882             	3.67565153e+02
883             	3.67565508e+02
884             	3.67565904e+02
885             	3.67566361e+02
886             	3.67566849e+02
887             	3.67567371e+02
888             	3.67567920e+02
889             	3.67568493e+02
890             	3.67569097e+02
891             	3.67569687e+02
892             	3.67570293e+02
893             	3.67570894e+02
894             	3.67571467e+02
895             	3.67571985e+02
896             	3.67572485e+02
897             	3.67572946e+02
898             	3.67573375e+02
899             	3.67573752e+02
900             	3.67574085e+02
901             	3.67574414e+02
902             	3.67574700e+02
903             	3.67574957e+02
904             	3.67575195e+02
905             	3.67575430e+02
906             	3.67575649e+02
907             	3.67575863e+02
908             	3.67576084e+02
909             	3.67576320e+02
910             	3.67576564e+02
911             	3.67576826e+02
912             	3.67577096e+02
913             	3.67577386e+02
914             	3.67577686e+02
915             	3.67577997e+02
916             	3.67578331e+02
917             	3.67578674e+02
918             	3.67579020e+02
919             	3.67579367e+02
920             	3.67579707e+02
921             	3.67580039e+02
922             	3.67580368e+02
923             	3.67580688e+02
924             	3.67581023e+02
925             	3.67581372e+02
926             	3.67581732e+02
927             	3.67582123e+02
928             	3.67582528e+02
929             	3.67582959e+02
930             	3.67583424e+02
931             	3.67583934e+02
932             	3.67584464e+02
933             	3.67585018e+02