# Region        : cellZone component_2
# Cells         : 143
# Volume        : 2.51353512e-01
# Time          	volAverage(T)
1               	3.00185490e+02
2               	3.00369543e+02
3               	3.00545354e+02
4               	3.00716338e+02
5               	3.00884589e+02
6               	3.01050781e+02
7               	3.01215217e+02
8               	3.01378704e+02
9               	3.01541126e+02
10              	3.01702710e+02
11              	3.01863726e+02
12              	3.02024312e+02
13              	3.02183325e+02
14              	3.02339763e+02
15              	3.02496094e+02
16              	3.02649049e+02
17              	3.02800020e+02
18              	3.02949487e+02
19              	3.03095867e+02
20              	3.03240065e+02
21              	3.03383539e+02
22              	3.03525712e+02
23              	3.03666886e+02
24              	3.03806662e+02
25              	3.03947513e+02
26              	3.04088673e+02
27              	3.04226704e+02
28              	3.04360177e+02
29              	3.04489248e+02
30              	3.04613961e+02
31              	3.04741768e+02
32              	3.04867118e+02
33              	3.04992147e+02
34              	3.05115839e+02
35              	3.05238290e+02
36              	3.05359009e+02
37              	3.05479410e+02
38              	3.05599510e+02
39              	3.05716969e+02
40              	3.05834490e+02
41              	3.05950917e+02
42              	3.06067574e+02
43              	3.06185416e+02
44              	3.06302602e+02
45              	3.06419158e+02
46              	3.06529165e+02
47              	3.06633424e+02
48              	3.06735675e+02
49              	3.06844028e+02
50              	3.06953160e+02
51              	3.07056917e+02
52              	3.07161165e+02
53              	3.07266751e+02
54              	3.07370788e+02
55              	3.07474543e+02
56              	3.07579158e+02
57              	3.07686857e+02
58              	3.07786208e+02
59              	3.07877633e+02
60              	3.07960557e+02
61              	3.08039592e+02
62              	3.08119871e+02
63              	3.08204575e+02
64              	3.08288525e+02
65              	3.08375417e+02
66              	3.08458602e+02
67              	3.08540492e+02
68              	3.08625586e+02
69              	3.08713102e+02
70              	3.08799580e+02
71              	3.08883750e+02
72              	3.08968966e+02
73              	3.09050080e+02
74              	3.09122336e+02
75              	3.09192140e+02
76              	3.09262676e+02
77              	3.09333111e+02
78              	3.09404102e+02
79              	3.09476515e+02
80              	3.09548296e+02
81              	3.09620515e+02
82              	3.09694469e+02
83              	3.09771794e+02
84              	3.09850153e+02
85              	3.09928676e+02
86              	3.10007407e+02
87              	3.10084937e+02
88              	3.10162377e+02
89              	3.10239108e+02
90              	3.10314750e+02
91              	3.10389459e+02
92              	3.10461817e+02
93              	3.10532173e+02
94              	3.10602455e+02
95              	3.10670545e+02
96              	3.10738765e+02
97              	3.10806111e+02
98              	3.10871775e+02
99              	3.10936496e+02
100             	3.11001752e+02
101             	3.11068954e+02
102             	3.11134332e+02
103             	3.11199625e+02
104             	3.11264381e+02
105             	3.11327564e+02
106             	3.11389229e+02
107             	3.11451411e+02
108             	3.11512360e+02
109             	3.11567129e+02
110             	3.11619907e+02
111             	3.11672380e+02
112             	3.11719643e+02
113             	3.11765057e+02
114             	3.11809497e+02
115             	3.11853981e+02
116             	3.11895519e+02
117             	3.11937568e+02
118             	3.11984103e+02
119             	3.12029886e+02
120             	3.12076903e+02
121             	3.12124229e+02
122             	3.12171488e+02
123             	3.12220683e+02
124             	3.12268912e+02
125             	3.12318132e+02
126             	3.12365980e+02
127             	3.12414528e+02
128             	3.12462149e+02
129             	3.12509038e+02
130             	3.12554657e+02
131             	3.12600008e+02
132             	3.12644551e+02
133             	3.12686538e+02
134             	3.12725854e+02
135             	3.12762891e+02
136             	3.12797964e+02
137             	3.12831328e+02
138             	3.12863694e+02
139             	3.12896186e+02
140             	3.12929096e+02
141             	3.12964019e+02
142             	3.13000979e+02
143             	3.13040008e+02
144             	3.13080539e+02
145             	3.13122474e+02
146             	3.13164671e+02
147             	3.13206286e+02
148             	3.13246745e+02
149             	3.13284506e+02
150             	3.13321026e+02
151             	3.13355330e+02
152             	3.13387997e+02
153             	3.13418849e+02
154             	3.13448898e+02
155             	3.13479742e+02
156             	3.13512520e+02
157             	3.13544352e+02
158             	3.13576566e+02
159             	3.13608067e+02
160             	3.13640319e+02
161             	3.13673215e+02
162             	3.13705235e+02
163             	3.13736649e+02
164             	3.13768578e+02
165             	3.13801281e+02
166             	3.13833634e+02
167             	3.13868403e+02
168             	3.13900218e+02
169             	3.13932848e+02
170             	3.13965449e+02
171             	3.13995165e+02
172             	3.14021625e+02
173             	3.14049140e+02
174             	3.14073978e+02
175             	3.14097478e+02
176             	3.14120240e+02
177             	3.14142208e+02
178             	3.14163271e+02
179             	3.14186320e+02
180             	3.14209926e+02
181             	3.14234677e+02
182             	3.14260082e+02
183             	3.14285740e+02
184             	3.14311815e+02
185             	3.14338141e+02
186             	3.14363630e+02
187             	3.14389937e+02
188             	3.14416418e+02
189             	3.14443129e+02
190             	3.14469603e+02
191             	3.14495946e+02
192             	3.14521502e+02
193             	3.14545722e+02
194             	3.14567324e+02
195             	3.14587481e+02
196             	3.14606590e+02
197             	3.14624654e+02
198             	3.14641740e+02
199             	3.14658421e+02
200             	3.14674817e+02
201             	3.14691801e+02
202             	3.14709835e+02
203             	3.14728598e+02
204             	3.14748098e+02
205             	3.14768382e+02
206             	3.14789532e+02
207             	3.14810817e+02
208             	3.14832219e+02
209             	3.14853674e+02
210             	3.14875636e+02
211             	3.14896867e+02
212             	3.14918498e+02
213             	3.14940242e+02
214             	3.14962196e+02
215             	3.14984375e+02
216             	3.15007083e+02
217             	3.15030170e+02
218             	3.15052751e+02
219             	3.15075526e+02
220             	3.15097797e+02
221             	3.15119169e+02
222             	3.15138771e+02
223             	3.15156858e+02
224             	3.15174339e+02
225             	3.15191989e+02
226             	3.15209393e+02
227             	3.15226707e+02
228             	3.15244317e+02
229             	3.15262821e+02
230             	3.15281897e+02
231             	3.15302029e+02
232             	3.15321542e+02
233             	3.15341748e+02
234             	3.15361233e+02
235             	3.15380290e+02
236             	3.15399176e+02
237             	3.15417985e+02
238             	3.15436591e+02
239             	3.15455493e+02
240             	3.15473816e+02
241             	3.15491498e+02
242             	3.15508700e+02
243             	3.15525197e+02
244             	3.15541353e+02
245             	3.15557320e+02
246             	3.15572754e+02
247             	3.15587895e+02
248             	3.15602796e+02
249             	3.15616993e+02
250             	3.15631248e+02
251             	3.15646181e+02
252             	3.15661641e+02
253             	3.15676229e+02
254             	3.15691193e+02
255             	3.15706449e+02
256             	3.15721641e+02
257             	3.15736670e+02
258             	3.15750200e+02
259             	3.15762991e+02
260             	3.15775804e+02
261             	3.15787823e+02
262             	3.15798718e+02
263             	3.15808936e+02
264             	3.15818298e+02
265             	3.15827624e+02
266             	3.15837334e+02
267             	3.15847423e+02
268             	3.15856900e+02
269             	3.15867146e+02
270             	3.15878243e+02
271             	3.15890379e+02
272             	3.15902946e+02
273             	3.15916343e+02
274             	3.15927296e+02
275             	3.15937925e+02
276             	3.15948479e+02
277             	3.15958339e+02
278             	3.15967228e+02
279             	3.15975835e+02
280             	3.15984123e+02
281             	3.15992110e+02
282             	3.15999419e+02
283             	3.16007262e+02
284             	3.16015320e+02
285             	3.16023206e+02
286             	3.16031195e+02
287             	3.16039437e+02
288             	3.16048284e+02
289             	3.16057370e+02
290             	3.16066561e+02
291             	3.16075745e+02
292             	3.16085020e+02
293             	3.16094269e+02
294             	3.16103645e+02
295             	3.16112838e+02
296             	3.16122020e+02
297             	3.16131059e+02
298             	3.16140395e+02
299             	3.16149490e+02
300             	3.16158560e+02
301             	3.16167520e+02
302             	3.16175689e+02
303             	3.16183732e+02
304             	3.16191473e+02
305             	3.16198863e+02
306             	3.16205795e+02
307             	3.16212450e+02
308             	3.16218752e+02
309             	3.16225429e+02
310             	3.16231888e+02
311             	3.16238128e+02
312             	3.16244496e+02
313             	3.16251300e+02
314             	3.16258710e+02
315             	3.16266342e+02
316             	3.16274280e+02
317             	3.16282388e+02
318             	3.16290452e+02
319             	3.16298552e+02
320             	3.16305975e+02
321             	3.16313189e+02
322             	3.16320259e+02
323             	3.16327066e+02
324             	3.16333625e+02
325             	3.16339815e+02
326             	3.16345762e+02
327             	3.16351105e+02
328             	3.16355925e+02
329             	3.16360874e+02
330             	3.16365620e+02
331             	3.16370923e+02
332             	3.16376714e+02
333             	3.16382818e+02
334             	3.16389584e+02
335             	3.16396304e+02
336             	3.16403057e+02
337             	3.16409664e+02
338             	3.16416072e+02
339             	3.16422527e+02
340             	3.16428766e+02
341             	3.16434930e+02
342             	3.16441189e+02
343             	3.16447076e+02
344             	3.16452456e+02
345             	3.16458124e+02
346             	3.16463868e+02
347             	3.16469335e+02
348             	3.16474684e+02
349             	3.16479828e+02
350             	3.16484833e+02
351             	3.16489817e+02
352             	3.16494843e+02
353             	3.16499958e+02
354             	3.16505149e+02
355             	3.16510076e+02
356             	3.16514925e+02
357             	3.16519823e+02
358             	3.16524894e+02
359             	3.16529949e+02
360             	3.16534524e+02
361             	3.16538959e+02
362             	3.16543337e+02
363             	3.16547699e+02
364             	3.16552010e+02
365             	3.16556081e+02
366             	3.16560055e+02
367             	3.16563968e+02
368             	3.16567936e+02
369             	3.16571878e+02
370             	3.16575637e+02
371             	3.16579705e+02
372             	3.16583878e+02
373             	3.16588098e+02
374             	3.16592316e+02
375             	3.16596691e+02
376             	3.16601022e+02
377             	3.16605474e+02
378             	3.16609733e+02
379             	3.16614077e+02
380             	3.16618153e+02
381             	3.16622047e+02
382             	3.16625915e+02
383             	3.16629668e+02
384             	3.16632990e+02
385             	3.16636140e+02
386             	3.16639445e+02
387             	3.16642641e+02
388             	3.16645981e+02
389             	3.16649263e+02
390             	3.16652848e+02
391             	3.16656493e+02
392             	3.16660150e+02
393             	3.16663775e+02
394             	3.16667399e+02
395             	3.16670926e+02
396             	3.16674166e+02
397             	3.16677316e+02
398             	3.16680321e+02
399             	3.16683296e+02
400             	3.16685936e+02
401             	3.16688748e+02
402             	3.16691405e+02
403             	3.16693995e+02
404             	3.16696848e+02
405             	3.16699610e+02
406             	3.16702462e+02
407             	3.16705331e+02
408             	3.16708192e+02
409             	3.16711098e+02
410             	3.16714006e+02
411             	3.16717083e+02
412             	3.16720137e+02
413             	3.16723417e+02
414             	3.16726529e+02
415             	3.16729567e+02
416             	3.16732572e+02
417             	3.16735543e+02
418             	3.16738305e+02
419             	3.16740878e+02
420             	3.16743288e+02
421             	3.16745565e+02
422             	3.16747490e+02
423             	3.16749473e+02
424             	3.16751812e+02
425             	3.16754288e+02
426             	3.16756622e+02
427             	3.16758994e+02
428             	3.16761431e+02
429             	3.16763875e+02
430             	3.16766376e+02
431             	3.16769000e+02
432             	3.16771520e+02
433             	3.16774015e+02
434             	3.16776510e+02
435             	3.16778945e+02
436             	3.16781322e+02
437             	3.16783686e+02
438             	3.16785942e+02
439             	3.16788075e+02
440             	3.16790164e+02
441             	3.16792191e+02
442             	3.16794171e+02
443             	3.16796143e+02
444             	3.16798050e+02
445             	3.16799942e+02
446             	3.16801806e+02
447             	3.16803658e+02
448             	3.16805447e+02
449             	3.16807433e+02
450             	3.16809404e+02
451             	3.16811359e+02
452             	3.16813328e+02
453             	3.16815272e+02
454             	3.16817192e+02
455             	3.16819100e+02
456             	3.16820979e+02
457             	3.16822840e+02
458             	3.16824674e+02
459             	3.16826487e+02
460             	3.16828283e+02
461             	3.16830058e+02
462             	3.16831807e+02
463             	3.16833538e+02
464             	3.16835250e+02
465             	3.16836937e+02
466             	3.16838595e+02
467             	3.16840210e+02
468             	3.16841835e+02
469             	3.16843465e+02
470             	3.16845088e+02
471             	3.16846705e+02
472             	3.16848308e+02
473             	3.16849899e+02
474             	3.16851471e+02
475             	3.16853007e+02
476             	3.16854515e+02
477             	3.16856005e+02
478             	3.16857479e+02
479             	3.16858938e+02
480             	3.16860385e+02
481             	3.16861823e+02
482             	3.16863253e+02
483             	3.16864675e+02
484             	3.16866083e+02
485             	3.16867467e+02
486             	3.16868834e+02
487             	3.16870173e+02
488             	3.16871488e+02
489             	3.16872768e+02
490             	3.16874054e+02
491             	3.16875339e+02
492             	3.16876621e+02
493             	3.16877891e+02
494             	3.16879153e+02
495             	3.16880409e+02
496             	3.16881648e+02
497             	3.16882875e+02
498             	3.16884091e+02
499             	3.16885291e+02
500             	3.16886466e+02
501             	3.16887627e+02
502             	3.16888774e+02
503             	3.16889903e+02
504             	3.16891022e+02
505             	3.16892127e+02
506             	3.16893196e+02
507             	3.16894261e+02
508             	3.16895327e+02
509             	3.16896390e+02
510             	3.16897449e+02
511             	3.16898505e+02
512             	3.16899552e+02
513             	3.16900587e+02
514             	3.16901610e+02
515             	3.16902605e+02
516             	3.16903592e+02
517             	3.16904576e+02
518             	3.16905547e+02
519             	3.16906514e+02
520             	3.16907467e+02
521             	3.16908409e+02
522             	3.16909347e+02
523             	3.16910258e+02
524             	3.16911160e+02
525             	3.16912064e+02
526             	3.16912963e+02
527             	3.16913855e+02
528             	3.16914744e+02
529             	3.16915625e+02
530             	3.16916492e+02
531             	3.16917343e+02
532             	3.16918184e+02
533             	3.16919019e+02
534             	3.16919855e+02
535             	3.16920676e+02
536             	3.16921478e+02
537             	3.16922280e+02
538             	3.16923063e+02
539             	3.16923835e+02
540             	3.16924609e+02
541             	3.16925377e+02
542             	3.16926132e+02
543             	3.16926890e+02
544             	3.16927631e+02
545             	3.16928365e+02
546             	3.16929103e+02
547             	3.16929832e+02
548             	3.16930544e+02
549             	3.16931255e+02
550             	3.16931953e+02
551             	3.16932635e+02
552             	3.16933325e+02
553             	3.16933996e+02
554             	3.16934660e+02
555             	3.16935319e+02
556             	3.16935975e+02
557             	3.16936615e+02
558             	3.16937259e+02
559             	3.16937892e+02
560             	3.16938507e+02
561             	3.16939122e+02
562             	3.16939715e+02
563             	3.16940299e+02
564             	3.16940887e+02
565             	3.16941475e+02
566             	3.16942054e+02
567             	3.16942635e+02
568             	3.16943209e+02
569             	3.16943773e+02
570             	3.16944333e+02
571             	3.16944885e+02
572             	3.16945430e+02
573             	3.16945977e+02
574             	3.16946513e+02
575             	3.16947038e+02
576             	3.16947568e+02
577             	3.16948089e+02
578             	3.16948594e+02
579             	3.16949105e+02
580             	3.16949601e+02
581             	3.16950091e+02
582             	3.16950587e+02
583             	3.16951077e+02
584             	3.16951561e+02
585             	3.16952046e+02
586             	3.16952521e+02
587             	3.16952987e+02
588             	3.16953456e+02
589             	3.16953915e+02
590             	3.16954364e+02
591             	3.16954817e+02
592             	3.16955262e+02
593             	3.16955696e+02
594             	3.16956127e+02
595             	3.16956555e+02
596             	3.16956973e+02
597             	3.16957397e+02
598             	3.16957812e+02
599             	3.16958216e+02
600             	3.16958618e+02
601             	3.16959005e+02
602             	3.16959392e+02
603             	3.16959785e+02
604             	3.16960171e+02
605             	3.16960552e+02
606             	3.16960937e+02
607             	3.16961316e+02
608             	3.16961686e+02
609             	3.16962054e+02
610             	3.16962419e+02
611             	3.16962776e+02
612             	3.16963133e+02
613             	3.16963487e+02
614             	3.16963834e+02
615             	3.16964183e+02
616             	3.16964521e+02
617             	3.16964854e+02
618             	3.16965189e+02
619             	3.16965507e+02
620             	3.16965828e+02
621             	3.16966155e+02
622             	3.16966476e+02
623             	3.16966793e+02
624             	3.16967113e+02
625             	3.16967429e+02
626             	3.16967742e+02
627             	3.16968050e+02
628             	3.16968354e+02
629             	3.16968650e+02
630             	3.16968946e+02
631             	3.16969237e+02
632             	3.16969516e+02
633             	3.16969788e+02
634             	3.16970066e+02
635             	3.16970333e+02
636             	3.16970611e+02
637             	3.16970892e+02
638             	3.16971171e+02
639             	3.16971454e+02
640             	3.16971742e+02
641             	3.16972019e+02
642             	3.16972289e+02
643             	3.16972551e+02
644             	3.16972805e+02
645             	3.16973050e+02
646             	3.16973296e+02
647             	3.16973532e+02
648             	3.16973768e+02
649             	3.16974004e+02
650             	3.16974241e+02
651             	3.16974483e+02
652             	3.16974724e+02
653             	3.16974961e+02
654             	3.16975196e+02
655             	3.16975427e+02
656             	3.16975652e+02
657             	3.16975877e+02
658             	3.16976097e+02
659             	3.16976315e+02
660             	3.16976527e+02
661             	3.16976739e+02
662             	3.16976947e+02
663             	3.16977152e+02
664             	3.16977357e+02
665             	3.16977556e+02
666             	3.16977755e+02
667             	3.16977951e+02
668             	3.16978143e+02
669             	3.16978333e+02
670             	3.16978522e+02
671             	3.16978707e+02
672             	3.16978894e+02
673             	3.16979075e+02
674             	3.16979252e+02
675             	3.16979435e+02
676             	3.16979619e+02
677             	3.16979800e+02
678             	3.16979985e+02
679             	3.16980168e+02
680             	3.16980349e+02
681             	3.16980531e+02
682             	3.16980709e+02
683             	3.16980884e+02
684             	3.16981060e+02
685             	3.16981230e+02
686             	3.16981394e+02
687             	3.16981557e+02
688             	3.16981715e+02
689             	3.16981868e+02
690             	3.16982022e+02
691             	3.16982172e+02
692             	3.16982319e+02
693             	3.16982465e+02
694             	3.16982611e+02
695             	3.16982756e+02
696             	3.16982902e+02
697             	3.16983048e+02
698             	3.16983192e+02
699             	3.16983333e+02
700             	3.16983477e+02
701             	3.16983617e+02
702             	3.16983757e+02
703             	3.16983897e+02
704             	3.16984039e+02
705             	3.16984184e+02
706             	3.16984328e+02
707             	3.16984469e+02
708             	3.16984610e+02
709             	3.16984747e+02
710             	3.16984880e+02
711             	3.16985017e+02
712             	3.16985149e+02
713             	3.16985277e+02
714             	3.16985404e+02
715             	3.16985527e+02
716             	3.16985645e+02
717             	3.16985763e+02
718             	3.16985873e+02
719             	3.16985985e+02
720             	3.16986095e+02
721             	3.16986211e+02
722             	3.16986325e+02
723             	3.16986441e+02
724             	3.16986557e+02
725             	3.16986677e+02
726             	3.16986792e+02
727             	3.16986906e+02
728             	3.16987019e+02
729             	3.16987129e+02
730             	3.16987238e+02
731             	3.16987344e+02
732             	3.16987447e+02
733             	3.16987540e+02
734             	3.16987637e+02
735             	3.16987737e+02
736             	3.16987837e+02
737             	3.16987935e+02
738             	3.16988035e+02
739             	3.16988136e+02
740             	3.16988234e+02
741             	3.16988330e+02
742             	3.16988423e+02
743             	3.16988513e+02
744             	3.16988603e+02
745             	3.16988689e+02
746             	3.16988776e+02
747             	3.16988863e+02
748             	3.16988952e+02
749             	3.16989043e+02
750             	3.16989133e+02
751             	3.16989220e+02
752             	3.16989300e+02
753             	3.16989374e+02
754             	3.16989454e+02
755             	3.16989532e+02
756             	3.16989611e+02
757             	3.16989692e+02
758             	3.16989775e+02
759             	3.16989861e+02
760             	3.16989946e+02
761             	3.16990030e+02
762             	3.16990111e+02
763             	3.16990193e+02
764             	3.16990269e+02
765             	3.16990342e+02
766             	3.16990415e+02
767             	3.16990486e+02
768             	3.16990553e+02
769             	3.16990622e+02
770             	3.16990690e+02
771             	3.16990760e+02
772             	3.16990830e+02
773             	3.16990900e+02
774             	3.16990973e+02
775             	3.16991046e+02
776             	3.16991113e+02
777             	3.16991180e+02
778             	3.16991245e+02
779             	3.16991310e+02
780             	3.16991376e+02
781             	3.16991442e+02
782             	3.16991508e+02
783             	3.16991577e+02
784             	3.16991648e+02
785             	3.16991716e+02
786             	3.16991781e+02
787             	3.16991844e+02
788             	3.16991904e+02
789             	3.16991961e+02
790             	3.16992018e+02
791             	3.16992071e+02
792             	3.16992124e+02
793             	3.16992177e+02
794             	3.16992230e+02
795             	3.16992284e+02
796             	3.16992339e+02
797             	3.16992392e+02
798             	3.16992445e+02
799             	3.16992498e+02
800             	3.16992551e+02
801             	3.16992605e+02
802             	3.16992660e+02
803             	3.16992716e+02
804             	3.16992772e+02
805             	3.16992827e+02
806             	3.16992881e+02
807             	3.16992936e+02
808             	3.16992989e+02
809             	3.16993041e+02
810             	3.16993092e+02
811             	3.16993141e+02
812             	3.16993188e+02
813             	3.16993229e+02
814             	3.16993268e+02
815             	3.16993313e+02
816             	3.16993351e+02
817             	3.16993388e+02
818             	3.16993431e+02
819             	3.16993468e+02
820             	3.16993504e+02
821             	3.16993537e+02
822             	3.16993571e+02
823             	3.16993603e+02
824             	3.16993643e+02
825             	3.16993675e+02
826             	3.16993708e+02
827             	3.16993748e+02
828             	3.16993782e+02
829             	3.16993816e+02
830             	3.16993848e+02
831             	3.16993881e+02
832             	3.16993915e+02
833             	3.16993948e+02
834             	3.16993982e+02
835             	3.16994016e+02
836             	3.16994058e+02
837             	3.16994091e+02
838             	3.16994124e+02
839             	3.16994162e+02
840             	3.16994194e+02
841             	3.16994224e+02
842             	3.16994251e+02
843             	3.16994279e+02
844             	3.16994307e+02
845             	3.16994333e+02
846             	3.16994360e+02
847             	3.16994388e+02
848             	3.16994414e+02
849             	3.16994439e+02
850             	3.16994467e+02
851             	3.16994494e+02
852             	3.16994520e+02
853             	3.16994547e+02
854             	3.16994574e+02
855             	3.16994601e+02
856             	3.16994628e+02
857             	3.16994654e+02
858             	3.16994681e+02
859             	3.16994707e+02
860             	3.16994732e+02
861             	3.16994756e+02
862             	3.16994782e+02
863             	3.16994805e+02
864             	3.16994830e+02
865             	3.16994855e+02
866             	3.16994879e+02
867             	3.16994903e+02
868             	3.16994927e+02
869             	3.16994949e+02
870             	3.16994974e+02
871             	3.16995002e+02
872             	3.16995032e+02
873             	3.16995059e+02
874             	3.16995085e+02
875             	3.16995109e+02
876             	3.16995135e+02
877             	3.16995163e+02
878             	3.16995195e+02
879             	3.16995225e+02
880             	3.16995250e+02
881             	3.16995279e+02
882             	3.16995305e+02
883             	3.16995330e+02
884             	3.16995350e+02
885             	3.16995371e+02
886             	3.16995389e+02
887             	3.16995410e+02
888             	3.16995430e+02
889             	3.16995448e+02
890             	3.16995465e+02
891             	3.16995482e+02
892             	3.16995499e+02
893             	3.16995516e+02
894             	3.16995533e+02
895             	3.16995551e+02
896             	3.16995569e+02
897             	3.16995586e+02
898             	3.16995605e+02
899             	3.16995623e+02
900             	3.16995643e+02
901             	3.16995663e+02
902             	3.16995687e+02
903             	3.16995706e+02
904             	3.16995725e+02
905             	3.16995747e+02
906             	3.16995766e+02
907             	3.16995783e+02
908             	3.16995798e+02
909             	3.16995814e+02
910             	3.16995829e+02
911             	3.16995844e+02
912             	3.16995858e+02
913             	3.16995873e+02
914             	3.16995889e+02
915             	3.16995901e+02
916             	3.16995914e+02
917             	3.16995927e+02
918             	3.16995940e+02
919             	3.16995954e+02
920             	3.16995968e+02
921             	3.16995982e+02
922             	3.16995997e+02
923             	3.16996012e+02
924             	3.16996028e+02
925             	3.16996042e+02
926             	3.16996057e+02
927             	3.16996071e+02
928             	3.16996086e+02
929             	3.16996099e+02
930             	3.16996112e+02
931             	3.16996124e+02
932             	3.16996136e+02
933             	3.16996148e+02