# Region        : cellZone component_1
# Cells         : 189
# Volume        : 1.46436610e-01
# Time          	volAverage(T)
1               	3.00402011e+02
2               	3.00799249e+02
3               	3.01182457e+02
4               	3.01555769e+02
5               	3.01922870e+02
6               	3.02284795e+02
7               	3.02641797e+02
8               	3.02994718e+02
9               	3.03345709e+02
10              	3.03693197e+02
11              	3.04037154e+02
12              	3.04377052e+02
13              	3.04712485e+02
14              	3.05044756e+02
15              	3.05375237e+02
16              	3.05704379e+02
17              	3.06027088e+02
18              	3.06347287e+02
19              	3.06664185e+02
20              	3.06977498e+02
21              	3.07288533e+02
22              	3.07595846e+02
23              	3.07901981e+02
24              	3.08206523e+02
25              	3.08507941e+02
26              	3.08807807e+02
27              	3.09104776e+02
28              	3.09399566e+02
29              	3.09691170e+02
30              	3.09979883e+02
31              	3.10269620e+02
32              	3.10560344e+02
33              	3.10847088e+02
34              	3.11125399e+02
35              	3.11400208e+02
36              	3.11673813e+02
37              	3.11947435e+02
38              	3.12219146e+02
39              	3.12487849e+02
40              	3.12752520e+02
41              	3.13015288e+02
42              	3.13275578e+02
43              	3.13533798e+02
44              	3.13790727e+02
45              	3.14046139e+02
46              	3.14299537e+02
47              	3.14552591e+02
48              	3.14804359e+02
49              	3.15055216e+02
50              	3.15305499e+02
51              	3.15555421e+02
52              	3.15805017e+02
53              	3.16051943e+02
54              	3.16296601e+02
55              	3.16539832e+02
56              	3.16779630e+02
57              	3.17015992e+02
58              	3.17248892e+02
59              	3.17477927e+02
60              	3.17703212e+02
61              	3.17924060e+02
62              	3.18142786e+02
63              	3.18360016e+02
64              	3.18575576e+02
65              	3.18790115e+02
66              	3.19002528e+02
67              	3.19215314e+02
68              	3.19427962e+02
69              	3.19639679e+02
70              	3.19850769e+02
71              	3.20060760e+02
72              	3.20268692e+02
73              	3.20473619e+02
74              	3.20677119e+02
75              	3.20877118e+02
76              	3.21074538e+02
77              	3.21269651e+02
78              	3.21462725e+02
79              	3.21653735e+02
80              	3.21843469e+02
81              	3.22032134e+02
82              	3.22219488e+02
83              	3.22404974e+02
84              	3.22589045e+02
85              	3.22771903e+02
86              	3.22954118e+02
87              	3.23135434e+02
88              	3.23315259e+02
89              	3.23494554e+02
90              	3.23670245e+02
91              	3.23843642e+02
92              	3.24015281e+02
93              	3.24184339e+02
94              	3.24350915e+02
95              	3.24514388e+02
96              	3.24675854e+02
97              	3.24833801e+02
98              	3.24993204e+02
99              	3.25151030e+02
100             	3.25309986e+02
101             	3.25470837e+02
102             	3.25631285e+02
103             	3.25789875e+02
104             	3.25947420e+02
105             	3.26103234e+02
106             	3.26256843e+02
107             	3.26409147e+02
108             	3.26558526e+02
109             	3.26705769e+02
110             	3.26850201e+02
111             	3.26994073e+02
112             	3.27136075e+02
113             	3.27275978e+02
114             	3.27416482e+02
115             	3.27556278e+02
116             	3.27694721e+02
117             	3.27834332e+02
118             	3.27974305e+02
119             	3.28114074e+02
120             	3.28251307e+02
121             	3.28386709e+02
122             	3.28520477e+02
123             	3.28652883e+02
124             	3.28782960e+02
125             	3.28912600e+02
126             	3.29041261e+02
127             	3.29169187e+02
128             	3.29295472e+02
129             	3.29419393e+02
130             	3.29542860e+02
131             	3.29666053e+02
132             	3.29788428e+02
133             	3.29910163e+02
134             	3.30031607e+02
135             	3.30153018e+02
136             	3.30273395e+02
137             	3.30393152e+02
138             	3.30513759e+02
139             	3.30634878e+02
140             	3.30755746e+02
141             	3.30876346e+02
142             	3.30996251e+02
143             	3.31114415e+02
144             	3.31231889e+02
145             	3.31349175e+02
146             	3.31465826e+02
147             	3.31581097e+02
148             	3.31693963e+02
149             	3.31807992e+02
150             	3.31919388e+02
151             	3.32032219e+02
152             	3.32144936e+02
153             	3.32256556e+02
154             	3.32367060e+02
155             	3.32475781e+02
156             	3.32583353e+02
157             	3.32689391e+02
158             	3.32794271e+02
159             	3.32898341e+02
160             	3.33001930e+02
161             	3.33105200e+02
162             	3.33206439e+02
163             	3.33308953e+02
164             	3.33411661e+02
165             	3.33514216e+02
166             	3.33616258e+02
167             	3.33717851e+02
168             	3.33818476e+02
169             	3.33918885e+02
170             	3.34018173e+02
171             	3.34116766e+02
172             	3.34214436e+02
173             	3.34311805e+02
174             	3.34406223e+02
175             	3.34500554e+02
176             	3.34594599e+02
177             	3.34689035e+02
178             	3.34782339e+02
179             	3.34874899e+02
180             	3.34966703e+02
181             	3.35058017e+02
182             	3.35148832e+02
183             	3.35238239e+02
184             	3.35326527e+02
185             	3.35413986e+02
186             	3.35500975e+02
187             	3.35586965e+02
188             	3.35671959e+02
189             	3.35757454e+02
190             	3.35842954e+02
191             	3.35928280e+02
192             	3.36012888e+02
193             	3.36096814e+02
194             	3.36180346e+02
195             	3.36263959e+02
196             	3.36346286e+02
197             	3.36427872e+02
198             	3.36509081e+02
199             	3.36590170e+02
200             	3.36670421e+02
201             	3.36748851e+02
202             	3.36827625e+02
203             	3.36906439e+02
204             	3.36984601e+02
205             	3.37062054e+02
206             	3.37138881e+02
207             	3.37215138e+02
208             	3.37290526e+02
209             	3.37365645e+02
210             	3.37439672e+02
211             	3.37512961e+02
212             	3.37585586e+02
213             	3.37657241e+02
214             	3.37728064e+02
215             	3.37799337e+02
216             	3.37870485e+02
217             	3.37941071e+02
218             	3.38010994e+02
219             	3.38080164e+02
220             	3.38149136e+02
221             	3.38217239e+02
222             	3.38284985e+02
223             	3.38352629e+02
224             	3.38419505e+02
225             	3.38486272e+02
226             	3.38551456e+02
227             	3.38616587e+02
228             	3.38681902e+02
229             	3.38747050e+02
230             	3.38811752e+02
231             	3.38875923e+02
232             	3.38939692e+02
233             	3.39002724e+02
234             	3.39065411e+02
235             	3.39127605e+02
236             	3.39189363e+02
237             	3.39250771e+02
238             	3.39310633e+02
239             	3.39369932e+02
240             	3.39429408e+02
241             	3.39488901e+02
242             	3.39547990e+02
243             	3.39606403e+02
244             	3.39664325e+02
245             	3.39722125e+02
246             	3.39779149e+02
247             	3.39835720e+02
248             	3.39892130e+02
249             	3.39948060e+02
250             	3.40003894e+02
251             	3.40058236e+02
252             	3.40112701e+02
253             	3.40167240e+02
254             	3.40221550e+02
255             	3.40275444e+02
256             	3.40328898e+02
257             	3.40381995e+02
258             	3.40434551e+02
259             	3.40486368e+02
260             	3.40537817e+02
261             	3.40588994e+02
262             	3.40639689e+02
263             	3.40689164e+02
264             	3.40738701e+02
265             	3.40788063e+02
266             	3.40837313e+02
267             	3.40886231e+02
268             	3.40934873e+02
269             	3.40983322e+02
270             	3.41031536e+02
271             	3.41078783e+02
272             	3.41125488e+02
273             	3.41172189e+02
274             	3.41218873e+02
275             	3.41264951e+02
276             	3.41310479e+02
277             	3.41356053e+02
278             	3.41401383e+02
279             	3.41446049e+02
280             	3.41490167e+02
281             	3.41534199e+02
282             	3.41578132e+02
283             	3.41621690e+02
284             	3.41664426e+02
285             	3.41706909e+02
286             	3.41748923e+02
287             	3.41790373e+02
288             	3.41831402e+02
289             	3.41872500e+02
290             	3.41913396e+02
291             	3.41954085e+02
292             	3.41994516e+02
293             	3.42034403e+02
294             	3.42074363e+02
295             	3.42114034e+02
296             	3.42153577e+02
297             	3.42192394e+02
298             	3.42231486e+02
299             	3.42269955e+02
300             	3.42307935e+02
301             	3.42345965e+02
302             	3.42383824e+02
303             	3.42421420e+02
304             	3.42458729e+02
305             	3.42495658e+02
306             	3.42532375e+02
307             	3.42568844e+02
308             	3.42604880e+02
309             	3.42640523e+02
310             	3.42675864e+02
311             	3.42710811e+02
312             	3.42745345e+02
313             	3.42779654e+02
314             	3.42813552e+02
315             	3.42847364e+02
316             	3.42881077e+02
317             	3.42914451e+02
318             	3.42947619e+02
319             	3.42980703e+02
320             	3.43013352e+02
321             	3.43045681e+02
322             	3.43077941e+02
323             	3.43110156e+02
324             	3.43142021e+02
325             	3.43173381e+02
326             	3.43204723e+02
327             	3.43235978e+02
328             	3.43267062e+02
329             	3.43297871e+02
330             	3.43328358e+02
331             	3.43358717e+02
332             	3.43388735e+02
333             	3.43418498e+02
334             	3.43448077e+02
335             	3.43477373e+02
336             	3.43506161e+02
337             	3.43535040e+02
338             	3.43563373e+02
339             	3.43591665e+02
340             	3.43619733e+02
341             	3.43647804e+02
342             	3.43675660e+02
343             	3.43703179e+02
344             	3.43730495e+02
345             	3.43757652e+02
346             	3.43784666e+02
347             	3.43811439e+02
348             	3.43837975e+02
349             	3.43864408e+02
350             	3.43890813e+02
351             	3.43916929e+02
352             	3.43942789e+02
353             	3.43968358e+02
354             	3.43993766e+02
355             	3.44019063e+02
356             	3.44044146e+02
357             	3.44069058e+02
358             	3.44093613e+02
359             	3.44118072e+02
360             	3.44142214e+02
361             	3.44166330e+02
362             	3.44190302e+02
363             	3.44214074e+02
364             	3.44237619e+02
365             	3.44261072e+02
366             	3.44284405e+02
367             	3.44307633e+02
368             	3.44330654e+02
369             	3.44353303e+02
370             	3.44375838e+02
371             	3.44398264e+02
372             	3.44420561e+02
373             	3.44442567e+02
374             	3.44464516e+02
375             	3.44486308e+02
376             	3.44507979e+02
377             	3.44529516e+02
378             	3.44550793e+02
379             	3.44571893e+02
380             	3.44592980e+02
381             	3.44613748e+02
382             	3.44634329e+02
383             	3.44654745e+02
384             	3.44674916e+02
385             	3.44694953e+02
386             	3.44714773e+02
387             	3.44734594e+02
388             	3.44754302e+02
389             	3.44773960e+02
390             	3.44793422e+02
391             	3.44812815e+02
392             	3.44832061e+02
393             	3.44851031e+02
394             	3.44869941e+02
395             	3.44888777e+02
396             	3.44907471e+02
397             	3.44925937e+02
398             	3.44944086e+02
399             	3.44962279e+02
400             	3.44980397e+02
401             	3.44998348e+02
402             	3.45016077e+02
403             	3.45033633e+02
404             	3.45051243e+02
405             	3.45068644e+02
406             	3.45085792e+02
407             	3.45102819e+02
408             	3.45119642e+02
409             	3.45136268e+02
410             	3.45152882e+02
411             	3.45169308e+02
412             	3.45185713e+02
413             	3.45201990e+02
414             	3.45218214e+02
415             	3.45234331e+02
416             	3.45250297e+02
417             	3.45266143e+02
418             	3.45282012e+02
419             	3.45297641e+02
420             	3.45313066e+02
421             	3.45328388e+02
422             	3.45343605e+02
423             	3.45358737e+02
424             	3.45373778e+02
425             	3.45388725e+02
426             	3.45403516e+02
427             	3.45418152e+02
428             	3.45432841e+02
429             	3.45447418e+02
430             	3.45461838e+02
431             	3.45476183e+02
432             	3.45490219e+02
433             	3.45504302e+02
434             	3.45518248e+02
435             	3.45532054e+02
436             	3.45545697e+02
437             	3.45559223e+02
438             	3.45572783e+02
439             	3.45586243e+02
440             	3.45599621e+02
441             	3.45612792e+02
442             	3.45625806e+02
443             	3.45638870e+02
444             	3.45651795e+02
445             	3.45664595e+02
446             	3.45677267e+02
447             	3.45689761e+02
448             	3.45702292e+02
449             	3.45714776e+02
450             	3.45727126e+02
451             	3.45739321e+02
452             	3.45751404e+02
453             	3.45763502e+02
454             	3.45775539e+02
455             	3.45787507e+02
456             	3.45799308e+02
457             	3.45810960e+02
458             	3.45822684e+02
459             	3.45834277e+02
460             	3.45845772e+02
461             	3.45857169e+02
462             	3.45868360e+02
463             	3.45879615e+02
464             	3.45890838e+02
465             	3.45901920e+02
466             	3.45912836e+02
467             	3.45923664e+02
468             	3.45934486e+02
469             	3.45945267e+02
470             	3.45955954e+02
471             	3.45966456e+02
472             	3.45976828e+02
473             	3.45987258e+02
474             	3.45997570e+02
475             	3.46007797e+02
476             	3.46017919e+02
477             	3.46027874e+02
478             	3.46037887e+02
479             	3.46047860e+02
480             	3.46057747e+02
481             	3.46067483e+02
482             	3.46077126e+02
483             	3.46086793e+02
484             	3.46096407e+02
485             	3.46105925e+02
486             	3.46115275e+02
487             	3.46124544e+02
488             	3.46133908e+02
489             	3.46143170e+02
490             	3.46152332e+02
491             	3.46161388e+02
492             	3.46170314e+02
493             	3.46179295e+02
494             	3.46188241e+02
495             	3.46197060e+02
496             	3.46205763e+02
497             	3.46214371e+02
498             	3.46222986e+02
499             	3.46231555e+02
500             	3.46240054e+02
501             	3.46248397e+02
502             	3.46256662e+02
503             	3.46265016e+02
504             	3.46273288e+02
505             	3.46281483e+02
506             	3.46289576e+02
507             	3.46297518e+02
508             	3.46305520e+02
509             	3.46313506e+02
510             	3.46321374e+02
511             	3.46329134e+02
512             	3.46336820e+02
513             	3.46344526e+02
514             	3.46352211e+02
515             	3.46359837e+02
516             	3.46367307e+02
517             	3.46374700e+02
518             	3.46382170e+02
519             	3.46389561e+02
520             	3.46396870e+02
521             	3.46404097e+02
522             	3.46411205e+02
523             	3.46418356e+02
524             	3.46425497e+02
525             	3.46432518e+02
526             	3.46439434e+02
527             	3.46446310e+02
528             	3.46453209e+02
529             	3.46460059e+02
530             	3.46466858e+02
531             	3.46473527e+02
532             	3.46480131e+02
533             	3.46486812e+02
534             	3.46493421e+02
535             	3.46499934e+02
536             	3.46506382e+02
537             	3.46512737e+02
538             	3.46519135e+02
539             	3.46525537e+02
540             	3.46531805e+02
541             	3.46537976e+02
542             	3.46544133e+02
543             	3.46550298e+02
544             	3.46556437e+02
545             	3.46562520e+02
546             	3.46568473e+02
547             	3.46574379e+02
548             	3.46580351e+02
549             	3.46586259e+02
550             	3.46592082e+02
551             	3.46597839e+02
552             	3.46603520e+02
553             	3.46609237e+02
554             	3.46614962e+02
555             	3.46620566e+02
556             	3.46626088e+02
557             	3.46631604e+02
558             	3.46637117e+02
559             	3.46642614e+02
560             	3.46648058e+02
561             	3.46653386e+02
562             	3.46658683e+02
563             	3.46664031e+02
564             	3.46669323e+02
565             	3.46674530e+02
566             	3.46679692e+02
567             	3.46684789e+02
568             	3.46689911e+02
569             	3.46695034e+02
570             	3.46700042e+02
571             	3.46704982e+02
572             	3.46709927e+02
573             	3.46714847e+02
574             	3.46719755e+02
575             	3.46724613e+02
576             	3.46729366e+02
577             	3.46734102e+02
578             	3.46738877e+02
579             	3.46743603e+02
580             	3.46748251e+02
581             	3.46752871e+02
582             	3.46757444e+02
583             	3.46762023e+02
584             	3.46766617e+02
585             	3.46771097e+02
586             	3.46775523e+02
587             	3.46779963e+02
588             	3.46784368e+02
589             	3.46788762e+02
590             	3.46793116e+02
591             	3.46797373e+02
592             	3.46801623e+02
593             	3.46805901e+02
594             	3.46810128e+02
595             	3.46814275e+02
596             	3.46818418e+02
597             	3.46822520e+02
598             	3.46826611e+02
599             	3.46830723e+02
600             	3.46834721e+02
601             	3.46838680e+02
602             	3.46842656e+02
603             	3.46846585e+02
604             	3.46850509e+02
605             	3.46854387e+02
606             	3.46858194e+02
607             	3.46861999e+02
608             	3.46865815e+02
609             	3.46869585e+02
610             	3.46873287e+02
611             	3.46876991e+02
612             	3.46880658e+02
613             	3.46884306e+02
614             	3.46887977e+02
615             	3.46891545e+02
616             	3.46895087e+02
617             	3.46898654e+02
618             	3.46902157e+02
619             	3.46905667e+02
620             	3.46909135e+02
621             	3.46912544e+02
622             	3.46915960e+02
623             	3.46919373e+02
624             	3.46922749e+02
625             	3.46926065e+02
626             	3.46929394e+02
627             	3.46932688e+02
628             	3.46935946e+02
629             	3.46939236e+02
630             	3.46942424e+02
631             	3.46945598e+02
632             	3.46948806e+02
633             	3.46951937e+02
634             	3.46955068e+02
635             	3.46958167e+02
636             	3.46961228e+02
637             	3.46964289e+02
638             	3.46967342e+02
639             	3.46970360e+02
640             	3.46973320e+02
641             	3.46976302e+02
642             	3.46979251e+02
643             	3.46982149e+02
644             	3.46985086e+02
645             	3.46987931e+02
646             	3.46990774e+02
647             	3.46993643e+02
648             	3.46996432e+02
649             	3.46999230e+02
650             	3.47002001e+02
651             	3.47004740e+02
652             	3.47007483e+02
653             	3.47010214e+02
654             	3.47012908e+02
655             	3.47015548e+02
656             	3.47018228e+02
657             	3.47020871e+02
658             	3.47023468e+02
659             	3.47026097e+02
660             	3.47028640e+02
661             	3.47031192e+02
662             	3.47033764e+02
663             	3.47036255e+02
664             	3.47038752e+02
665             	3.47041237e+02
666             	3.47043693e+02
667             	3.47046149e+02
668             	3.47048592e+02
669             	3.47050997e+02
670             	3.47053358e+02
671             	3.47055762e+02
672             	3.47058126e+02
673             	3.47060441e+02
674             	3.47062794e+02
675             	3.47065069e+02
676             	3.47067350e+02
677             	3.47069647e+02
678             	3.47071870e+02
679             	3.47074100e+02
680             	3.47076320e+02
681             	3.47078515e+02
682             	3.47080716e+02
683             	3.47082897e+02
684             	3.47085043e+02
685             	3.47087161e+02
686             	3.47089317e+02
687             	3.47091431e+02
688             	3.47093498e+02
689             	3.47095606e+02
690             	3.47097650e+02
691             	3.47099700e+02
692             	3.47101773e+02
693             	3.47103767e+02
694             	3.47105762e+02
695             	3.47107759e+02
696             	3.47109737e+02
697             	3.47111711e+02
698             	3.47113655e+02
699             	3.47115568e+02
700             	3.47117461e+02
701             	3.47119391e+02
702             	3.47121273e+02
703             	3.47123108e+02
704             	3.47124980e+02
705             	3.47126802e+02
706             	3.47128636e+02
707             	3.47130483e+02
708             	3.47132262e+02
709             	3.47134047e+02
710             	3.47135843e+02
711             	3.47137613e+02
712             	3.47139381e+02
713             	3.47141127e+02
714             	3.47142844e+02
715             	3.47144537e+02
716             	3.47146270e+02
717             	3.47147957e+02
718             	3.47149606e+02
719             	3.47151287e+02
720             	3.47152925e+02
721             	3.47154566e+02
722             	3.47156227e+02
723             	3.47157815e+02
724             	3.47159407e+02
725             	3.47161019e+02
726             	3.47162606e+02
727             	3.47164179e+02
728             	3.47165742e+02
729             	3.47167256e+02
730             	3.47168771e+02
731             	3.47170329e+02
732             	3.47171834e+02
733             	3.47173302e+02
734             	3.47174799e+02
735             	3.47176254e+02
736             	3.47177722e+02
737             	3.47179207e+02
738             	3.47180622e+02
739             	3.47182037e+02
740             	3.47183475e+02
741             	3.47184890e+02
742             	3.47186292e+02
743             	3.47187689e+02
744             	3.47189055e+02
745             	3.47190417e+02
746             	3.47191814e+02
747             	3.47193162e+02
748             	3.47194487e+02
749             	3.47195837e+02
750             	3.47197150e+02
751             	3.47198468e+02
752             	3.47199800e+02
753             	3.47201068e+02
754             	3.47202332e+02
755             	3.47203623e+02
756             	3.47204887e+02
757             	3.47206132e+02
758             	3.47207382e+02
759             	3.47208593e+02
760             	3.47209810e+02
761             	3.47211057e+02
762             	3.47212252e+02
763             	3.47213427e+02
764             	3.47214625e+02
765             	3.47215797e+02
766             	3.47216972e+02
767             	3.47218158e+02
768             	3.47219293e+02
769             	3.47220420e+02
770             	3.47221583e+02
771             	3.47222719e+02
772             	3.47223838e+02
773             	3.47224968e+02
774             	3.47226058e+02
775             	3.47227155e+02
776             	3.47228284e+02
777             	3.47229358e+02
778             	3.47230419e+02
779             	3.47231496e+02
780             	3.47232545e+02
781             	3.47233600e+02
782             	3.47234663e+02
783             	3.47235678e+02
784             	3.47236686e+02
785             	3.47237729e+02
786             	3.47238739e+02
787             	3.47239731e+02
788             	3.47240741e+02
789             	3.47241704e+02
790             	3.47242677e+02
791             	3.47243682e+02
792             	3.47244632e+02
793             	3.47245574e+02
794             	3.47246532e+02
795             	3.47247466e+02
796             	3.47248408e+02
797             	3.47249354e+02
798             	3.47250257e+02
799             	3.47251153e+02
800             	3.47252089e+02
801             	3.47252990e+02
802             	3.47253876e+02
803             	3.47254784e+02
804             	3.47255643e+02
805             	3.47256516e+02
806             	3.47257417e+02
807             	3.47258264e+02
808             	3.47259109e+02
809             	3.47259972e+02
810             	3.47260812e+02
811             	3.47261652e+02
812             	3.47262499e+02
813             	3.47263309e+02
814             	3.47264109e+02
815             	3.47264949e+02
816             	3.47265755e+02
817             	3.47266541e+02
818             	3.47267356e+02
819             	3.47268123e+02
820             	3.47268900e+02
821             	3.47269710e+02
822             	3.47270465e+02
823             	3.47271223e+02
824             	3.47271997e+02
825             	3.47272747e+02
826             	3.47273493e+02
827             	3.47274248e+02
828             	3.47274973e+02
829             	3.47275687e+02
830             	3.47276437e+02
831             	3.47277148e+02
832             	3.47277841e+02
833             	3.47278571e+02
834             	3.47279258e+02
835             	3.47279957e+02
836             	3.47280682e+02
837             	3.47281348e+02
838             	3.47282019e+02
839             	3.47282709e+02
840             	3.47283381e+02
841             	3.47284041e+02
842             	3.47284717e+02
843             	3.47285362e+02
844             	3.47285994e+02
845             	3.47286664e+02
846             	3.47287297e+02
847             	3.47287906e+02
848             	3.47288556e+02
849             	3.47289067e+02
850             	3.47289684e+02
851             	3.47290331e+02
852             	3.47290928e+02
853             	3.47291400e+02
854             	3.47291933e+02
855             	3.47292530e+02
856             	3.47293125e+02
857             	3.47293737e+02
858             	3.47294194e+02
859             	3.47294671e+02
860             	3.47295282e+02
861             	3.47295721e+02
862             	3.47296281e+02
863             	3.47296747e+02
864             	3.47297204e+02
865             	3.47297627e+02
866             	3.47298220e+02
867             	3.47298757e+02
868             	3.47299181e+02
869             	3.47299654e+02
870             	3.47300057e+02
871             	3.47300455e+02
872             	3.47301010e+02
873             	3.47301417e+02
874             	3.47301843e+02
875             	3.47302263e+02
876             	3.47302651e+02
877             	3.47303033e+02
878             	3.47303451e+02
879             	3.47303861e+02
880             	3.47304240e+02
881             	3.47304646e+02
882             	3.47305024e+02
883             	3.47305410e+02
884             	3.47305844e+02
885             	3.47306220e+02
886             	3.47306588e+02
887             	3.47307104e+02
888             	3.47307484e+02
889             	3.47307877e+02
890             	3.47308269e+02
891             	3.47308633e+02
892             	3.47308991e+02
893             	3.47309379e+02
894             	3.47309755e+02
895             	3.47310102e+02
896             	3.47310474e+02
897             	3.47310820e+02
898             	3.47311171e+02
899             	3.47311568e+02
900             	3.47311912e+02
901             	3.47312252e+02
902             	3.47312616e+02
903             	3.47312954e+02
904             	3.47313303e+02
905             	3.47313658e+02
906             	3.47313981e+02
907             	3.47314298e+02
908             	3.47314648e+02
909             	3.47314984e+02
910             	3.47315299e+02
911             	3.47315639e+02
912             	3.47315953e+02
913             	3.47316264e+02
914             	3.47316617e+02
915             	3.47316925e+02
916             	3.47317231e+02
917             	3.47317564e+02
918             	3.47317874e+02
919             	3.47318187e+02
920             	3.47318515e+02
921             	3.47318814e+02
922             	3.47319109e+02
923             	3.47319436e+02
924             	3.47319746e+02
925             	3.47320040e+02
926             	3.47320353e+02
927             	3.47320638e+02
928             	3.47320925e+02
929             	3.47321249e+02
930             	3.47321535e+02
931             	3.47321816e+02
932             	3.47322122e+02
933             	3.47322404e+02