# Region        : cellZone component_0
# Cells         : 104
# Volume        : 1.95164559e-01
# Time          	volAverage(T)
1               	3.00807248e+02
2               	3.01599319e+02
3               	3.02315105e+02
4               	3.02987478e+02
5               	3.03642877e+02
6               	3.04290016e+02
7               	3.04931961e+02
8               	3.05571016e+02
9               	3.06211453e+02
10              	3.06844634e+02
11              	3.07463261e+02
12              	3.08073119e+02
13              	3.08667655e+02
14              	3.09253195e+02
15              	3.09820689e+02
16              	3.10383498e+02
17              	3.10942731e+02
18              	3.11507282e+02
19              	3.12070269e+02
20              	3.12625574e+02
21              	3.13175058e+02
22              	3.13715051e+02
23              	3.14241494e+02
24              	3.14757158e+02
25              	3.15259179e+02
26              	3.15750931e+02
27              	3.16246673e+02
28              	3.16730326e+02
29              	3.17195191e+02
30              	3.17649885e+02
31              	3.18099236e+02
32              	3.18547958e+02
33              	3.18977962e+02
34              	3.19380992e+02
35              	3.19764429e+02
36              	3.20136926e+02
37              	3.20484247e+02
38              	3.20806399e+02
39              	3.21112842e+02
40              	3.21429515e+02
41              	3.21762902e+02
42              	3.22069747e+02
43              	3.22348177e+02
44              	3.22593993e+02
45              	3.22828674e+02
46              	3.23030307e+02
47              	3.23257521e+02
48              	3.23470048e+02
49              	3.23660151e+02
50              	3.23841075e+02
51              	3.24018505e+02
52              	3.24210112e+02
53              	3.24414268e+02
54              	3.24625297e+02
55              	3.24829951e+02
56              	3.25034945e+02
57              	3.25199961e+02
58              	3.25340724e+02
59              	3.25485542e+02
60              	3.25622592e+02
61              	3.25739782e+02
62              	3.25838868e+02
63              	3.25925418e+02
64              	3.26011526e+02
65              	3.26110568e+02
66              	3.26214807e+02
67              	3.26325437e+02
68              	3.26436988e+02
69              	3.26545855e+02
70              	3.26652774e+02
71              	3.26761947e+02
72              	3.26859768e+02
73              	3.26951300e+02
74              	3.27028342e+02
75              	3.27097057e+02
76              	3.27153509e+02
77              	3.27202769e+02
78              	3.27248535e+02
79              	3.27297482e+02
80              	3.27355112e+02
81              	3.27416713e+02
82              	3.27485447e+02
83              	3.27563737e+02
84              	3.27646336e+02
85              	3.27731394e+02
86              	3.27797262e+02
87              	3.27862885e+02
88              	3.27919005e+02
89              	3.27962907e+02
90              	3.28004161e+02
91              	3.28038886e+02
92              	3.28075127e+02
93              	3.28123514e+02
94              	3.28180486e+02
95              	3.28244876e+02
96              	3.28307335e+02
97              	3.28370189e+02
98              	3.28426213e+02
99              	3.28476055e+02
100             	3.28523448e+02
101             	3.28558951e+02
102             	3.28584440e+02
103             	3.28606703e+02
104             	3.28622763e+02
105             	3.28649903e+02
106             	3.28694312e+02
107             	3.28747915e+02
108             	3.28801497e+02
109             	3.28857140e+02
110             	3.28900657e+02
111             	3.28939204e+02
112             	3.28976088e+02
113             	3.29005381e+02
114             	3.29024454e+02
115             	3.29039181e+02
116             	3.29051716e+02
117             	3.29067311e+02
118             	3.29086762e+02
119             	3.29113338e+02
120             	3.29147918e+02
121             	3.29194789e+02
122             	3.29227152e+02
123             	3.29263519e+02
124             	3.29302772e+02
125             	3.29337794e+02
126             	3.29363205e+02
127             	3.29381653e+02
128             	3.29402620e+02
129             	3.29419474e+02
130             	3.29444807e+02
131             	3.29478369e+02
132             	3.29517950e+02
133             	3.29558875e+02
134             	3.29593534e+02
135             	3.29624783e+02
136             	3.29652817e+02
137             	3.29679627e+02
138             	3.29701289e+02
139             	3.29719477e+02
140             	3.29732707e+02
141             	3.29747262e+02
142             	3.29767092e+02
143             	3.29794120e+02
144             	3.29818573e+02
145             	3.29852015e+02
146             	3.29890652e+02
147             	3.29922769e+02
148             	3.29956906e+02
149             	3.29989170e+02
150             	3.30015803e+02
151             	3.30037700e+02
152             	3.30056268e+02
153             	3.30072764e+02
154             	3.30089542e+02
155             	3.30109838e+02
156             	3.30126181e+02
157             	3.30142908e+02
158             	3.30163133e+02
159             	3.30186656e+02
160             	3.30208290e+02
161             	3.30231350e+02
162             	3.30255200e+02
163             	3.30277639e+02
164             	3.30299963e+02
165             	3.30322144e+02
166             	3.30340899e+02
167             	3.30358273e+02
168             	3.30373886e+02
169             	3.30389651e+02
170             	3.30406430e+02
171             	3.30422390e+02
172             	3.30440912e+02
173             	3.30459177e+02
174             	3.30477294e+02
175             	3.30499416e+02
176             	3.30517752e+02
177             	3.30532942e+02
178             	3.30545999e+02
179             	3.30555176e+02
180             	3.30561154e+02
181             	3.30568468e+02
182             	3.30579959e+02
183             	3.30592157e+02
184             	3.30608503e+02
185             	3.30629497e+02
186             	3.30652285e+02
187             	3.30671870e+02
188             	3.30686026e+02
189             	3.30696464e+02
190             	3.30704612e+02
191             	3.30708822e+02
192             	3.30710711e+02
193             	3.30713597e+02
194             	3.30720740e+02
195             	3.30726309e+02
196             	3.30741487e+02
197             	3.30764173e+02
198             	3.30783154e+02
199             	3.30803986e+02
200             	3.30823891e+02
201             	3.30837731e+02
202             	3.30846951e+02
203             	3.30852803e+02
204             	3.30856211e+02
205             	3.30859304e+02
206             	3.30865980e+02
207             	3.30870285e+02
208             	3.30882932e+02
209             	3.30900263e+02
210             	3.30922623e+02
211             	3.30944471e+02
212             	3.30969303e+02
213             	3.30990890e+02
214             	3.31010564e+02
215             	3.31027709e+02
216             	3.31042308e+02
217             	3.31054361e+02
218             	3.31064761e+02
219             	3.31077412e+02
220             	3.31087170e+02
221             	3.31098237e+02
222             	3.31111539e+02
223             	3.31127893e+02
224             	3.31144113e+02
225             	3.31160789e+02
226             	3.31179518e+02
227             	3.31197505e+02
228             	3.31213620e+02
229             	3.31227902e+02
230             	3.31239760e+02
231             	3.31248580e+02
232             	3.31256013e+02
233             	3.31262657e+02
234             	3.31269723e+02
235             	3.31278609e+02
236             	3.31288986e+02
237             	3.31300408e+02
238             	3.31313244e+02
239             	3.31326798e+02
240             	3.31340939e+02
241             	3.31355825e+02
242             	3.31369518e+02
243             	3.31381824e+02
244             	3.31393515e+02
245             	3.31402974e+02
246             	3.31409929e+02
247             	3.31417444e+02
248             	3.31424578e+02
249             	3.31430781e+02
250             	3.31436827e+02
251             	3.31443825e+02
252             	3.31451893e+02
253             	3.31461112e+02
254             	3.31471242e+02
255             	3.31481906e+02
256             	3.31493242e+02
257             	3.31504396e+02
258             	3.31514528e+02
259             	3.31524646e+02
260             	3.31534045e+02
261             	3.31542403e+02
262             	3.31549690e+02
263             	3.31556330e+02
264             	3.31562928e+02
265             	3.31569467e+02
266             	3.31576288e+02
267             	3.31583575e+02
268             	3.31591161e+02
269             	3.31598408e+02
270             	3.31606249e+02
271             	3.31614273e+02
272             	3.31622390e+02
273             	3.31631046e+02
274             	3.31639990e+02
275             	3.31648586e+02
276             	3.31656277e+02
277             	3.31663590e+02
278             	3.31670177e+02
279             	3.31675943e+02
280             	3.31681952e+02
281             	3.31688192e+02
282             	3.31694712e+02
283             	3.31701677e+02
284             	3.31708669e+02
285             	3.31716119e+02
286             	3.31724030e+02
287             	3.31731991e+02
288             	3.31739774e+02
289             	3.31746902e+02
290             	3.31752772e+02
291             	3.31757605e+02
292             	3.31762572e+02
293             	3.31767708e+02
294             	3.31772461e+02
295             	3.31777214e+02
296             	3.31782354e+02
297             	3.31787561e+02
298             	3.31793222e+02
299             	3.31799143e+02
300             	3.31805341e+02
301             	3.31811776e+02
302             	3.31818211e+02
303             	3.31824307e+02
304             	3.31830114e+02
305             	3.31835363e+02
306             	3.31840365e+02
307             	3.31845300e+02
308             	3.31850045e+02
309             	3.31854620e+02
310             	3.31859205e+02
311             	3.31864134e+02
312             	3.31869171e+02
313             	3.31874197e+02
314             	3.31879207e+02
315             	3.31884174e+02
316             	3.31889302e+02
317             	3.31894298e+02
318             	3.31898939e+02
319             	3.31903188e+02
320             	3.31907534e+02
321             	3.31911848e+02
322             	3.31916047e+02
323             	3.31920257e+02
324             	3.31924236e+02
325             	3.31928305e+02
326             	3.31932265e+02
327             	3.31936192e+02
328             	3.31940144e+02
329             	3.31944285e+02
330             	3.31948447e+02
331             	3.31952831e+02
332             	3.31957133e+02
333             	3.31961050e+02
334             	3.31964788e+02
335             	3.31968518e+02
336             	3.31972050e+02
337             	3.31975450e+02
338             	3.31978676e+02
339             	3.31982021e+02
340             	3.31985466e+02
341             	3.31988920e+02
342             	3.31992508e+02
343             	3.31996231e+02
344             	3.31999944e+02
345             	3.32003096e+02
346             	3.32006071e+02
347             	3.32008849e+02
348             	3.32011604e+02
349             	3.32014435e+02
350             	3.32017101e+02
351             	3.32019819e+02
352             	3.32022689e+02
353             	3.32025793e+02
354             	3.32028930e+02
355             	3.32032027e+02
356             	3.32035031e+02
357             	3.32038297e+02
358             	3.32041616e+02
359             	3.32044679e+02
360             	3.32047528e+02
361             	3.32050037e+02
362             	3.32052487e+02
363             	3.32054755e+02
364             	3.32056971e+02
365             	3.32059219e+02
366             	3.32061544e+02
367             	3.32064145e+02
368             	3.32066801e+02
369             	3.32069487e+02
370             	3.32072158e+02
371             	3.32074806e+02
372             	3.32077290e+02
373             	3.32079692e+02
374             	3.32082000e+02
375             	3.32084170e+02
376             	3.32086258e+02
377             	3.32088287e+02
378             	3.32090286e+02
379             	3.32092383e+02
380             	3.32094444e+02
381             	3.32096532e+02
382             	3.32098605e+02
383             	3.32100679e+02
384             	3.32102712e+02
385             	3.32104711e+02
386             	3.32106839e+02
387             	3.32108900e+02
388             	3.32110875e+02
389             	3.32112845e+02
390             	3.32114858e+02
391             	3.32116818e+02
392             	3.32118690e+02
393             	3.32120450e+02
394             	3.32122116e+02
395             	3.32123637e+02
396             	3.32125195e+02
397             	3.32126798e+02
398             	3.32128362e+02
399             	3.32129937e+02
400             	3.32131514e+02
401             	3.32133114e+02
402             	3.32134829e+02
403             	3.32136500e+02
404             	3.32138173e+02
405             	3.32139870e+02
406             	3.32141515e+02
407             	3.32143107e+02
408             	3.32144600e+02
409             	3.32146098e+02
410             	3.32147535e+02
411             	3.32148885e+02
412             	3.32150199e+02
413             	3.32151529e+02
414             	3.32152849e+02
415             	3.32154180e+02
416             	3.32155518e+02
417             	3.32156910e+02
418             	3.32158300e+02
419             	3.32159700e+02
420             	3.32161050e+02
421             	3.32162417e+02
422             	3.32163720e+02
423             	3.32164958e+02
424             	3.32166154e+02
425             	3.32167346e+02
426             	3.32168501e+02
427             	3.32169642e+02
428             	3.32170766e+02
429             	3.32171920e+02
430             	3.32173071e+02
431             	3.32174220e+02
432             	3.32175358e+02
433             	3.32176526e+02
434             	3.32177674e+02
435             	3.32178784e+02
436             	3.32179863e+02
437             	3.32180961e+02
438             	3.32182014e+02
439             	3.32183033e+02
440             	3.32184024e+02
441             	3.32185016e+02
442             	3.32185985e+02
443             	3.32186931e+02
444             	3.32187842e+02
445             	3.32188771e+02
446             	3.32189685e+02
447             	3.32190593e+02
448             	3.32191481e+02
449             	3.32192383e+02
450             	3.32193286e+02
451             	3.32194184e+02
452             	3.32195066e+02
453             	3.32195960e+02
454             	3.32196826e+02
455             	3.32197680e+02
456             	3.32198507e+02
457             	3.32199337e+02
458             	3.32200149e+02
459             	3.32200942e+02
460             	3.32201721e+02
461             	3.32202509e+02
462             	3.32203291e+02
463             	3.32204063e+02
464             	3.32204816e+02
465             	3.32205574e+02
466             	3.32206322e+02
467             	3.32207055e+02
468             	3.32207759e+02
469             	3.32208467e+02
470             	3.32209161e+02
471             	3.32209840e+02
472             	3.32210500e+02
473             	3.32211176e+02
474             	3.32211850e+02
475             	3.32212515e+02
476             	3.32213163e+02
477             	3.32213826e+02
478             	3.32214484e+02
479             	3.32215129e+02
480             	3.32215754e+02
481             	3.32216376e+02
482             	3.32216988e+02
483             	3.32217585e+02
484             	3.32218155e+02
485             	3.32218727e+02
486             	3.32219292e+02
487             	3.32219849e+02
488             	3.32220391e+02
489             	3.32220948e+02
490             	3.32221504e+02
491             	3.32222052e+02
492             	3.32222584e+02
493             	3.32223123e+02
494             	3.32223656e+02
495             	3.32224176e+02
496             	3.32224678e+02
497             	3.32225175e+02
498             	3.32225667e+02
499             	3.32226151e+02
500             	3.32226617e+02
501             	3.32227088e+02
502             	3.32227553e+02
503             	3.32228013e+02
504             	3.32228461e+02
505             	3.32228917e+02
506             	3.32229369e+02
507             	3.32229814e+02
508             	3.32230245e+02
509             	3.32230682e+02
510             	3.32231114e+02
511             	3.32231539e+02
512             	3.32231951e+02
513             	3.32232365e+02
514             	3.32232775e+02
515             	3.32233178e+02
516             	3.32233567e+02
517             	3.32233960e+02
518             	3.32234350e+02
519             	3.32234733e+02
520             	3.32235102e+02
521             	3.32235472e+02
522             	3.32235837e+02
523             	3.32236197e+02
524             	3.32236543e+02
525             	3.32236895e+02
526             	3.32237246e+02
527             	3.32237590e+02
528             	3.32237922e+02
529             	3.32238260e+02
530             	3.32238596e+02
531             	3.32238927e+02
532             	3.32239248e+02
533             	3.32239572e+02
534             	3.32239891e+02
535             	3.32240204e+02
536             	3.32240504e+02
537             	3.32240809e+02
538             	3.32241112e+02
539             	3.32241408e+02
540             	3.32241695e+02
541             	3.32241984e+02
542             	3.32242273e+02
543             	3.32242558e+02
544             	3.32242832e+02
545             	3.32243106e+02
546             	3.32243378e+02
547             	3.32243645e+02
548             	3.32243902e+02
549             	3.32244162e+02
550             	3.32244420e+02
551             	3.32244673e+02
552             	3.32244919e+02
553             	3.32245168e+02
554             	3.32245415e+02
555             	3.32245659e+02
556             	3.32245894e+02
557             	3.32246133e+02
558             	3.32246371e+02
559             	3.32246603e+02
560             	3.32246828e+02
561             	3.32247056e+02
562             	3.32247282e+02
563             	3.32247504e+02
564             	3.32247718e+02
565             	3.32247928e+02
566             	3.32248137e+02
567             	3.32248343e+02
568             	3.32248541e+02
569             	3.32248738e+02
570             	3.32248934e+02
571             	3.32249128e+02
572             	3.32249315e+02
573             	3.32249508e+02
574             	3.32249699e+02
575             	3.32249887e+02
576             	3.32250071e+02
577             	3.32250258e+02
578             	3.32250442e+02
579             	3.32250624e+02
580             	3.32250802e+02
581             	3.32250980e+02
582             	3.32251158e+02
583             	3.32251332e+02
584             	3.32251500e+02
585             	3.32251665e+02
586             	3.32251829e+02
587             	3.32251990e+02
588             	3.32252144e+02
589             	3.32252296e+02
590             	3.32252447e+02
591             	3.32252598e+02
592             	3.32252745e+02
593             	3.32252895e+02
594             	3.32253045e+02
595             	3.32253194e+02
596             	3.32253339e+02
597             	3.32253489e+02
598             	3.32253641e+02
599             	3.32253788e+02
600             	3.32253930e+02
601             	3.32254071e+02
602             	3.32254207e+02
603             	3.32254344e+02
604             	3.32254474e+02
605             	3.32254600e+02
606             	3.32254727e+02
607             	3.32254851e+02
608             	3.32254970e+02
609             	3.32255090e+02
610             	3.32255212e+02
611             	3.32255331e+02
612             	3.32255446e+02
613             	3.32255564e+02
614             	3.32255680e+02
615             	3.32255794e+02
616             	3.32255904e+02
617             	3.32256014e+02
618             	3.32256126e+02
619             	3.32256235e+02
620             	3.32256341e+02
621             	3.32256448e+02
622             	3.32256555e+02
623             	3.32256659e+02
624             	3.32256760e+02
625             	3.32256861e+02
626             	3.32256960e+02
627             	3.32257057e+02
628             	3.32257152e+02
629             	3.32257247e+02
630             	3.32257342e+02
631             	3.32257436e+02
632             	3.32257527e+02
633             	3.32257616e+02
634             	3.32257704e+02
635             	3.32257791e+02
636             	3.32257873e+02
637             	3.32257954e+02
638             	3.32258034e+02
639             	3.32258114e+02
640             	3.32258191e+02
641             	3.32258271e+02
642             	3.32258351e+02
643             	3.32258432e+02
644             	3.32258512e+02
645             	3.32258592e+02
646             	3.32258671e+02
647             	3.32258749e+02
648             	3.32258824e+02
649             	3.32258896e+02
650             	3.32258967e+02
651             	3.32259036e+02
652             	3.32259102e+02
653             	3.32259167e+02
654             	3.32259232e+02
655             	3.32259295e+02
656             	3.32259357e+02
657             	3.32259418e+02
658             	3.32259480e+02
659             	3.32259542e+02
660             	3.32259602e+02
661             	3.32259661e+02
662             	3.32259721e+02
663             	3.32259781e+02
664             	3.32259839e+02
665             	3.32259897e+02
666             	3.32259956e+02
667             	3.32260014e+02
668             	3.32260072e+02
669             	3.32260129e+02
670             	3.32260186e+02
671             	3.32260243e+02
672             	3.32260299e+02
673             	3.32260354e+02
674             	3.32260409e+02
675             	3.32260464e+02
676             	3.32260516e+02
677             	3.32260569e+02
678             	3.32260622e+02
679             	3.32260674e+02
680             	3.32260724e+02
681             	3.32260774e+02
682             	3.32260825e+02
683             	3.32260874e+02
684             	3.32260922e+02
685             	3.32260970e+02
686             	3.32261017e+02
687             	3.32261064e+02
688             	3.32261109e+02
689             	3.32261154e+02
690             	3.32261198e+02
691             	3.32261242e+02
692             	3.32261284e+02
693             	3.32261326e+02
694             	3.32261369e+02
695             	3.32261410e+02
696             	3.32261450e+02
697             	3.32261491e+02
698             	3.32261531e+02
699             	3.32261571e+02
700             	3.32261609e+02
701             	3.32261646e+02
702             	3.32261684e+02
703             	3.32261721e+02
704             	3.32261757e+02
705             	3.32261792e+02
706             	3.32261827e+02
707             	3.32261861e+02
708             	3.32261895e+02
709             	3.32261928e+02
710             	3.32261962e+02
711             	3.32261996e+02
712             	3.32262028e+02
713             	3.32262063e+02
714             	3.32262097e+02
715             	3.32262130e+02
716             	3.32262163e+02
717             	3.32262196e+02
718             	3.32262230e+02
719             	3.32262263e+02
720             	3.32262294e+02
721             	3.32262325e+02
722             	3.32262355e+02
723             	3.32262385e+02
724             	3.32262414e+02
725             	3.32262440e+02
726             	3.32262467e+02
727             	3.32262494e+02
728             	3.32262519e+02
729             	3.32262545e+02
730             	3.32262570e+02
731             	3.32262594e+02
732             	3.32262619e+02
733             	3.32262644e+02
734             	3.32262670e+02
735             	3.32262695e+02
736             	3.32262720e+02
737             	3.32262746e+02
738             	3.32262772e+02
739             	3.32262798e+02
740             	3.32262823e+02
741             	3.32262848e+02
742             	3.32262873e+02
743             	3.32262898e+02
744             	3.32262922e+02
745             	3.32262945e+02
746             	3.32262968e+02
747             	3.32262990e+02
748             	3.32263012e+02
749             	3.32263034e+02
750             	3.32263056e+02
751             	3.32263078e+02
752             	3.32263099e+02
753             	3.32263120e+02
754             	3.32263141e+02
755             	3.32263161e+02
756             	3.32263182e+02
757             	3.32263202e+02
758             	3.32263223e+02
759             	3.32263243e+02
760             	3.32263263e+02
761             	3.32263283e+02
762             	3.32263304e+02
763             	3.32263324e+02
764             	3.32263344e+02
765             	3.32263364e+02
766             	3.32263384e+02
767             	3.32263404e+02
768             	3.32263424e+02
769             	3.32263444e+02
770             	3.32263463e+02
771             	3.32263482e+02
772             	3.32263501e+02
773             	3.32263519e+02
774             	3.32263538e+02
775             	3.32263556e+02
776             	3.32263573e+02
777             	3.32263589e+02
778             	3.32263606e+02
779             	3.32263622e+02
780             	3.32263637e+02
781             	3.32263652e+02
782             	3.32263668e+02
783             	3.32263683e+02
784             	3.32263698e+02
785             	3.32263713e+02
786             	3.32263728e+02
787             	3.32263744e+02
788             	3.32263759e+02
789             	3.32263774e+02
790             	3.32263789e+02
791             	3.32263805e+02
792             	3.32263820e+02
793             	3.32263835e+02
794             	3.32263850e+02
795             	3.32263865e+02
796             	3.32263879e+02
797             	3.32263894e+02
798             	3.32263908e+02
799             	3.32263923e+02
800             	3.32263936e+02
801             	3.32263950e+02
802             	3.32263964e+02
803             	3.32263977e+02
804             	3.32263991e+02
805             	3.32264004e+02
806             	3.32264017e+02
807             	3.32264029e+02
808             	3.32264041e+02
809             	3.32264053e+02
810             	3.32264066e+02
811             	3.32264077e+02
812             	3.32264089e+02
813             	3.32264101e+02
814             	3.32264112e+02
815             	3.32264123e+02
816             	3.32264135e+02
817             	3.32264146e+02
818             	3.32264156e+02
819             	3.32264167e+02
820             	3.32264177e+02
821             	3.32264187e+02
822             	3.32264197e+02
823             	3.32264206e+02
824             	3.32264215e+02
825             	3.32264224e+02
826             	3.32264233e+02
827             	3.32264242e+02
828             	3.32264250e+02
829             	3.32264259e+02
830             	3.32264267e+02
831             	3.32264275e+02
832             	3.32264283e+02
833             	3.32264291e+02
834             	3.32264299e+02
835             	3.32264306e+02
836             	3.32264314e+02
837             	3.32264321e+02
838             	3.32264328e+02
839             	3.32264335e+02
840             	3.32264342e+02
841             	3.32264349e+02
842             	3.32264356e+02
843             	3.32264362e+02
844             	3.32264368e+02
845             	3.32264374e+02
846             	3.32264379e+02
847             	3.32264385e+02
848             	3.32264390e+02
849             	3.32264395e+02
850             	3.32264400e+02
851             	3.32264404e+02
852             	3.32264409e+02
853             	3.32264413e+02
854             	3.32264418e+02
855             	3.32264422e+02
856             	3.32264427e+02
857             	3.32264431e+02
858             	3.32264436e+02
859             	3.32264440e+02
860             	3.32264443e+02
861             	3.32264447e+02
862             	3.32264451e+02
863             	3.32264454e+02
864             	3.32264458e+02
865             	3.32264461e+02
866             	3.32264465e+02
867             	3.32264468e+02
868             	3.32264471e+02
869             	3.32264475e+02
870             	3.32264478e+02
871             	3.32264481e+02
872             	3.32264484e+02
873             	3.32264486e+02
874             	3.32264489e+02
875             	3.32264492e+02
876             	3.32264495e+02
877             	3.32264498e+02
878             	3.32264501e+02
879             	3.32264504e+02
880             	3.32264507e+02
881             	3.32264510e+02
882             	3.32264513e+02
883             	3.32264516e+02
884             	3.32264518e+02
885             	3.32264521e+02
886             	3.32264524e+02
887             	3.32264527e+02
888             	3.32264529e+02
889             	3.32264532e+02
890             	3.32264535e+02
891             	3.32264538e+02
892             	3.32264541e+02
893             	3.32264544e+02
894             	3.32264547e+02
895             	3.32264550e+02
896             	3.32264552e+02
897             	3.32264555e+02
898             	3.32264558e+02
899             	3.32264560e+02
900             	3.32264563e+02
901             	3.32264566e+02
902             	3.32264568e+02
903             	3.32264571e+02
904             	3.32264573e+02
905             	3.32264575e+02
906             	3.32264578e+02
907             	3.32264580e+02
908             	3.32264582e+02
909             	3.32264585e+02
910             	3.32264587e+02
911             	3.32264589e+02
912             	3.32264591e+02
913             	3.32264593e+02
914             	3.32264595e+02
915             	3.32264597e+02
916             	3.32264599e+02
917             	3.32264602e+02
918             	3.32264604e+02
919             	3.32264607e+02
920             	3.32264610e+02
921             	3.32264612e+02
922             	3.32264615e+02
923             	3.32264618e+02
924             	3.32264620e+02
925             	3.32264622e+02
926             	3.32264625e+02
927             	3.32264627e+02
928             	3.32264630e+02
929             	3.32264632e+02
930             	3.32264634e+02
931             	3.32264636e+02
932             	3.32264638e+02
933             	3.32264640e+02