# Region        : cellZone fluid
# Cells         : 9195
# Volume        : 1.79459915e+01
# Time          	volAverage(T)
1               	2.99999939e+02
2               	2.99999969e+02
3               	3.00000380e+02
4               	3.00001022e+02
5               	3.00001429e+02
6               	3.00001826e+02
7               	3.00002305e+02
8               	3.00002892e+02
9               	3.00003688e+02
10              	3.00004701e+02
11              	3.00005709e+02
12              	3.00006520e+02
13              	3.00007662e+02
14              	3.00008798e+02
15              	3.00009770e+02
16              	3.00010816e+02
17              	3.00011928e+02
18              	3.00013210e+02
19              	3.00014379e+02
20              	3.00015549e+02
21              	3.00016952e+02
22              	3.00018410e+02
23              	3.00019635e+02
24              	3.00021272e+02
25              	3.00022829e+02
26              	3.00024469e+02
27              	3.00025597e+02
28              	3.00027201e+02
29              	3.00028418e+02
30              	3.00029899e+02
31              	3.00031208e+02
32              	3.00032405e+02
33              	3.00033532e+02
34              	3.00034690e+02
35              	3.00036177e+02
36              	3.00037530e+02
37              	3.00039032e+02
38              	3.00040653e+02
39              	3.00042104e+02
40              	3.00043843e+02
41              	3.00045435e+02
42              	3.00047128e+02
43              	3.00048819e+02
44              	3.00050463e+02
45              	3.00051735e+02
46              	3.00053475e+02
47              	3.00054963e+02
48              	3.00056401e+02
49              	3.00058020e+02
50              	3.00059832e+02
51              	3.00061932e+02
52              	3.00063636e+02
53              	3.00065393e+02
54              	3.00066822e+02
55              	3.00067863e+02
56              	3.00069055e+02
57              	3.00070243e+02
58              	3.00071750e+02
59              	3.00073153e+02
60              	3.00074649e+02
61              	3.00075774e+02
62              	3.00077150e+02
63              	3.00078605e+02
64              	3.00080273e+02
65              	3.00082106e+02
66              	3.00084008e+02
67              	3.00085344e+02
68              	3.00086862e+02
69              	3.00088635e+02
70              	3.00090191e+02
71              	3.00091908e+02
72              	3.00093617e+02
73              	3.00095400e+02
74              	3.00097337e+02
75              	3.00099390e+02
76              	3.00101416e+02
77              	3.00103380e+02
78              	3.00104416e+02
79              	3.00106022e+02
80              	3.00107004e+02
81              	3.00108904e+02
82              	3.00111184e+02
83              	3.00111750e+02
84              	3.00112410e+02
85              	3.00113302e+02
86              	3.00114710e+02
87              	3.00116198e+02
88              	3.00117742e+02
89              	3.00119255e+02
90              	3.00121139e+02
91              	3.00122850e+02
92              	3.00124370e+02
93              	3.00125396e+02
94              	3.00127016e+02
95              	3.00127885e+02
96              	3.00128405e+02
97              	3.00128688e+02
98              	3.00129091e+02
99              	3.00130079e+02
100             	3.00130906e+02
101             	3.00131556e+02
102             	3.00132433e+02
103             	3.00133376e+02
104             	3.00134812e+02
105             	3.00135329e+02
106             	3.00136479e+02
107             	3.00137367e+02
108             	3.00138306e+02
109             	3.00139193e+02
110             	3.00140353e+02
111             	3.00140899e+02
112             	3.00142024e+02
113             	3.00143232e+02
114             	3.00144518e+02
115             	3.00145751e+02
116             	3.00146855e+02
117             	3.00147631e+02
118             	3.00148021e+02
119             	3.00148455e+02
120             	3.00149591e+02
121             	3.00150678e+02
122             	3.00151518e+02
123             	3.00151882e+02
124             	3.00152342e+02
125             	3.00152879e+02
126             	3.00153730e+02
127             	3.00154746e+02
128             	3.00155729e+02
129             	3.00156760e+02
130             	3.00157328e+02
131             	3.00158609e+02
132             	3.00159203e+02
133             	3.00160205e+02
134             	3.00160728e+02
135             	3.00161236e+02
136             	3.00161664e+02
137             	3.00161620e+02
138             	3.00161917e+02
139             	3.00162278e+02
140             	3.00162393e+02
141             	3.00162255e+02
142             	3.00162359e+02
143             	3.00162614e+02
144             	3.00162970e+02
145             	3.00163353e+02
146             	3.00163484e+02
147             	3.00163514e+02
148             	3.00163364e+02
149             	3.00163367e+02
150             	3.00163642e+02
151             	3.00163729e+02
152             	3.00163611e+02
153             	3.00163634e+02
154             	3.00163684e+02
155             	3.00163626e+02
156             	3.00163815e+02
157             	3.00163624e+02
158             	3.00164384e+02
159             	3.00164431e+02
160             	3.00164673e+02
161             	3.00164874e+02
162             	3.00165140e+02
163             	3.00165824e+02
164             	3.00166423e+02
165             	3.00166628e+02
166             	3.00167202e+02
167             	3.00167184e+02
168             	3.00167693e+02
169             	3.00167986e+02
170             	3.00168224e+02
171             	3.00168419e+02
172             	3.00168830e+02
173             	3.00168956e+02
174             	3.00169430e+02
175             	3.00169691e+02
176             	3.00170061e+02
177             	3.00170433e+02
178             	3.00170772e+02
179             	3.00171121e+02
180             	3.00171565e+02
181             	3.00171963e+02
182             	3.00172409e+02
183             	3.00172877e+02
184             	3.00173351e+02
185             	3.00173848e+02
186             	3.00174352e+02
187             	3.00175093e+02
188             	3.00175701e+02
189             	3.00176118e+02
190             	3.00176423e+02
191             	3.00176592e+02
192             	3.00177076e+02
193             	3.00177400e+02
194             	3.00177603e+02
195             	3.00177743e+02
196             	3.00177738e+02
197             	3.00177697e+02
198             	3.00177844e+02
199             	3.00177625e+02
200             	3.00177569e+02
201             	3.00177546e+02
202             	3.00177812e+02
203             	3.00177770e+02
204             	3.00177831e+02
205             	3.00178052e+02
206             	3.00178372e+02
207             	3.00178714e+02
208             	3.00178966e+02
209             	3.00179160e+02
210             	3.00179275e+02
211             	3.00179346e+02
212             	3.00179247e+02
213             	3.00178849e+02
214             	3.00179115e+02
215             	3.00179393e+02
216             	3.00179531e+02
217             	3.00179629e+02
218             	3.00179740e+02
219             	3.00179749e+02
220             	3.00179763e+02
221             	3.00179970e+02
222             	3.00180169e+02
223             	3.00180340e+02
224             	3.00180487e+02
225             	3.00180600e+02
226             	3.00180778e+02
227             	3.00181224e+02
228             	3.00181632e+02
229             	3.00181938e+02
230             	3.00181774e+02
231             	3.00182281e+02
232             	3.00182648e+02
233             	3.00182773e+02
234             	3.00182961e+02
235             	3.00183175e+02
236             	3.00183302e+02
237             	3.00183691e+02
238             	3.00184487e+02
239             	3.00184358e+02
240             	3.00184350e+02
241             	3.00184461e+02
242             	3.00184664e+02
243             	3.00184867e+02
244             	3.00184983e+02
245             	3.00184688e+02
246             	3.00184754e+02
247             	3.00184887e+02
248             	3.00184818e+02
249             	3.00184686e+02
250             	3.00184562e+02
251             	3.00184747e+02
252             	3.00185126e+02
253             	3.00185261e+02
254             	3.00185033e+02
255             	3.00185031e+02
256             	3.00185110e+02
257             	3.00185187e+02
258             	3.00185241e+02
259             	3.00184905e+02
260             	3.00184586e+02
261             	3.00184427e+02
262             	3.00184682e+02
263             	3.00184728e+02
264             	3.00184643e+02
265             	3.00184716e+02
266             	3.00184799e+02
267             	3.00185146e+02
268             	3.00185634e+02
269             	3.00185613e+02
270             	3.00185756e+02
271             	3.00186056e+02
272             	3.00186049e+02
273             	3.00186021e+02
274             	3.00185715e+02
275             	3.00185692e+02
276             	3.00185959e+02
277             	3.00185983e+02
278             	3.00186091e+02
279             	3.00186243e+02
280             	3.00186759e+02
281             	3.00187281e+02
282             	3.00187425e+02
283             	3.00187606e+02
284             	3.00187753e+02
285             	3.00187946e+02
286             	3.00188147e+02
287             	3.00188493e+02
288             	3.00188693e+02
289             	3.00188835e+02
290             	3.00188813e+02
291             	3.00188762e+02
292             	3.00188708e+02
293             	3.00188968e+02
294             	3.00189147e+02
295             	3.00189237e+02
296             	3.00189228e+02
297             	3.00189325e+02
298             	3.00189369e+02
299             	3.00189905e+02
300             	3.00189478e+02
301             	3.00189120e+02
302             	3.00188845e+02
303             	3.00188604e+02
304             	3.00188452e+02
305             	3.00188442e+02
306             	3.00188621e+02
307             	3.00188551e+02
308             	3.00188752e+02
309             	3.00188793e+02
310             	3.00188575e+02
311             	3.00188441e+02
312             	3.00188371e+02
313             	3.00188284e+02
314             	3.00188092e+02
315             	3.00187907e+02
316             	3.00187775e+02
317             	3.00187737e+02
318             	3.00187900e+02
319             	3.00188342e+02
320             	3.00188170e+02
321             	3.00187933e+02
322             	3.00187865e+02
323             	3.00187933e+02
324             	3.00187797e+02
325             	3.00187252e+02
326             	3.00187528e+02
327             	3.00187865e+02
328             	3.00188017e+02
329             	3.00188025e+02
330             	3.00188023e+02
331             	3.00188549e+02
332             	3.00188431e+02
333             	3.00188478e+02
334             	3.00188443e+02
335             	3.00188525e+02
336             	3.00188481e+02
337             	3.00188440e+02
338             	3.00188592e+02
339             	3.00188742e+02
340             	3.00188931e+02
341             	3.00189214e+02
342             	3.00189433e+02
343             	3.00189103e+02
344             	3.00189326e+02
345             	3.00189474e+02
346             	3.00189537e+02
347             	3.00189536e+02
348             	3.00189444e+02
349             	3.00189299e+02
350             	3.00189220e+02
351             	3.00189149e+02
352             	3.00189228e+02
353             	3.00189643e+02
354             	3.00189326e+02
355             	3.00189064e+02
356             	3.00188914e+02
357             	3.00188883e+02
358             	3.00188929e+02
359             	3.00189010e+02
360             	3.00189118e+02
361             	3.00188674e+02
362             	3.00188608e+02
363             	3.00188547e+02
364             	3.00188694e+02
365             	3.00188704e+02
366             	3.00188583e+02
367             	3.00189062e+02
368             	3.00189066e+02
369             	3.00188941e+02
370             	3.00188676e+02
371             	3.00188544e+02
372             	3.00188548e+02
373             	3.00188597e+02
374             	3.00188717e+02
375             	3.00188845e+02
376             	3.00188529e+02
377             	3.00188343e+02
378             	3.00188577e+02
379             	3.00188685e+02
380             	3.00188468e+02
381             	3.00188182e+02
382             	3.00188124e+02
383             	3.00188767e+02
384             	3.00188952e+02
385             	3.00188650e+02
386             	3.00188553e+02
387             	3.00188621e+02
388             	3.00188715e+02
389             	3.00188534e+02
390             	3.00188127e+02
391             	3.00188453e+02
392             	3.00188509e+02
393             	3.00188496e+02
394             	3.00188443e+02
395             	3.00188271e+02
396             	3.00188142e+02
397             	3.00188730e+02
398             	3.00188443e+02
399             	3.00188304e+02
400             	3.00188442e+02
401             	3.00188471e+02
402             	3.00188343e+02
403             	3.00188448e+02
404             	3.00188521e+02
405             	3.00188590e+02
406             	3.00188345e+02
407             	3.00188212e+02
408             	3.00188498e+02
409             	3.00188695e+02
410             	3.00188689e+02
411             	3.00188527e+02
412             	3.00188367e+02
413             	3.00188730e+02
414             	3.00189001e+02
415             	3.00188665e+02
416             	3.00188489e+02
417             	3.00188376e+02
418             	3.00188325e+02
419             	3.00187908e+02
420             	3.00188194e+02
421             	3.00188369e+02
422             	3.00188405e+02
423             	3.00188502e+02
424             	3.00188671e+02
425             	3.00188298e+02
426             	3.00188406e+02
427             	3.00188430e+02
428             	3.00188386e+02
429             	3.00188208e+02
430             	3.00187998e+02
431             	3.00187870e+02
432             	3.00188327e+02
433             	3.00188294e+02
434             	3.00188192e+02
435             	3.00188170e+02
436             	3.00188366e+02
437             	3.00188441e+02
438             	3.00188461e+02
439             	3.00188348e+02
440             	3.00188244e+02
441             	3.00188055e+02
442             	3.00188058e+02
443             	3.00188220e+02
444             	3.00188293e+02
445             	3.00188293e+02
446             	3.00188299e+02
447             	3.00188604e+02
448             	3.00189110e+02
449             	3.00188842e+02
450             	3.00188763e+02
451             	3.00188536e+02
452             	3.00188583e+02
453             	3.00188622e+02
454             	3.00188717e+02
455             	3.00188711e+02
456             	3.00188595e+02
457             	3.00188348e+02
458             	3.00188574e+02
459             	3.00188756e+02
460             	3.00188687e+02
461             	3.00188558e+02
462             	3.00188450e+02
463             	3.00188759e+02
464             	3.00188765e+02
465             	3.00188592e+02
466             	3.00188428e+02
467             	3.00188355e+02
468             	3.00188354e+02
469             	3.00188356e+02
470             	3.00188384e+02
471             	3.00188451e+02
472             	3.00188490e+02
473             	3.00188278e+02
474             	3.00188058e+02
475             	3.00188248e+02
476             	3.00188264e+02
477             	3.00188185e+02
478             	3.00188067e+02
479             	3.00187962e+02
480             	3.00187839e+02
481             	3.00187874e+02
482             	3.00187994e+02
483             	3.00188102e+02
484             	3.00188057e+02
485             	3.00187936e+02
486             	3.00188004e+02
487             	3.00188128e+02
488             	3.00188285e+02
489             	3.00188374e+02
490             	3.00188052e+02
491             	3.00187928e+02
492             	3.00188139e+02
493             	3.00188112e+02
494             	3.00187997e+02
495             	3.00188157e+02
496             	3.00188015e+02
497             	3.00187942e+02
498             	3.00187910e+02
499             	3.00188020e+02
500             	3.00188031e+02
501             	3.00188311e+02
502             	3.00187997e+02
503             	3.00187820e+02
504             	3.00187810e+02
505             	3.00187885e+02
506             	3.00187908e+02
507             	3.00187722e+02
508             	3.00187668e+02
509             	3.00187669e+02
510             	3.00187854e+02
511             	3.00187878e+02
512             	3.00187745e+02
513             	3.00187754e+02
514             	3.00187760e+02
515             	3.00187626e+02
516             	3.00187624e+02
517             	3.00187657e+02
518             	3.00187887e+02
519             	3.00187507e+02
520             	3.00187272e+02
521             	3.00187101e+02
522             	3.00187041e+02
523             	3.00187086e+02
524             	3.00187160e+02
525             	3.00186696e+02
526             	3.00186763e+02
527             	3.00187090e+02
528             	3.00187192e+02
529             	3.00187355e+02
530             	3.00187369e+02
531             	3.00187272e+02
532             	3.00187477e+02
533             	3.00187328e+02
534             	3.00187523e+02
535             	3.00187648e+02
536             	3.00187464e+02
537             	3.00187353e+02
538             	3.00187449e+02
539             	3.00187565e+02
540             	3.00187740e+02
541             	3.00187759e+02
542             	3.00187894e+02
543             	3.00187854e+02
544             	3.00187608e+02
545             	3.00187688e+02
546             	3.00187686e+02
547             	3.00187662e+02
548             	3.00187622e+02
549             	3.00187912e+02
550             	3.00187672e+02
551             	3.00187566e+02
552             	3.00187452e+02
553             	3.00187269e+02
554             	3.00187376e+02
555             	3.00187411e+02
556             	3.00187359e+02
557             	3.00187229e+02
558             	3.00187281e+02
559             	3.00187420e+02
560             	3.00187627e+02
561             	3.00187554e+02
562             	3.00187574e+02
563             	3.00187278e+02
564             	3.00186911e+02
565             	3.00187159e+02
566             	3.00187369e+02
567             	3.00187301e+02
568             	3.00187203e+02
569             	3.00187424e+02
570             	3.00187320e+02
571             	3.00187261e+02
572             	3.00187459e+02
573             	3.00187364e+02
574             	3.00187216e+02
575             	3.00187185e+02
576             	3.00187263e+02
577             	3.00187373e+02
578             	3.00187332e+02
579             	3.00187352e+02
580             	3.00187045e+02
581             	3.00187375e+02
582             	3.00187627e+02
583             	3.00187610e+02
584             	3.00187487e+02
585             	3.00187846e+02
586             	3.00187986e+02
587             	3.00188074e+02
588             	3.00187910e+02
589             	3.00187876e+02
590             	3.00187803e+02
591             	3.00187651e+02
592             	3.00187379e+02
593             	3.00187220e+02
594             	3.00187361e+02
595             	3.00187447e+02
596             	3.00187485e+02
597             	3.00187439e+02
598             	3.00187625e+02
599             	3.00187993e+02
600             	3.00188499e+02
601             	3.00188163e+02
602             	3.00188082e+02
603             	3.00188145e+02
604             	3.00188035e+02
605             	3.00187829e+02
606             	3.00187538e+02
607             	3.00187482e+02
608             	3.00187596e+02
609             	3.00187700e+02
610             	3.00187688e+02
611             	3.00187487e+02
612             	3.00187921e+02
613             	3.00188444e+02
614             	3.00188139e+02
615             	3.00187993e+02
616             	3.00188002e+02
617             	3.00188041e+02
618             	3.00187696e+02
619             	3.00187262e+02
620             	3.00187205e+02
621             	3.00187446e+02
622             	3.00187660e+02
623             	3.00187732e+02
624             	3.00187556e+02
625             	3.00187351e+02
626             	3.00188099e+02
627             	3.00187787e+02
628             	3.00187559e+02
629             	3.00187507e+02
630             	3.00187374e+02
631             	3.00187452e+02
632             	3.00187520e+02
633             	3.00187694e+02
634             	3.00187773e+02
635             	3.00187779e+02
636             	3.00187944e+02
637             	3.00187995e+02
638             	3.00188184e+02
639             	3.00188105e+02
640             	3.00187846e+02
641             	3.00188006e+02
642             	3.00188151e+02
643             	3.00188098e+02
644             	3.00188010e+02
645             	3.00187996e+02
646             	3.00188045e+02
647             	3.00187978e+02
648             	3.00187848e+02
649             	3.00187991e+02
650             	3.00188334e+02
651             	3.00188506e+02
652             	3.00188493e+02
653             	3.00188343e+02
654             	3.00188448e+02
655             	3.00188427e+02
656             	3.00188448e+02
657             	3.00188476e+02
658             	3.00188345e+02
659             	3.00188179e+02
660             	3.00188353e+02
661             	3.00188340e+02
662             	3.00188492e+02
663             	3.00188383e+02
664             	3.00188251e+02
665             	3.00188168e+02
666             	3.00188501e+02
667             	3.00188868e+02
668             	3.00188592e+02
669             	3.00188457e+02
670             	3.00188441e+02
671             	3.00188347e+02
672             	3.00187992e+02
673             	3.00187883e+02
674             	3.00188170e+02
675             	3.00188341e+02
676             	3.00188247e+02
677             	3.00188163e+02
678             	3.00188008e+02
679             	3.00188457e+02
680             	3.00188210e+02
681             	3.00188096e+02
682             	3.00188125e+02
683             	3.00188155e+02
684             	3.00188225e+02
685             	3.00187910e+02
686             	3.00187815e+02
687             	3.00187780e+02
688             	3.00187801e+02
689             	3.00187825e+02
690             	3.00187828e+02
691             	3.00187641e+02
692             	3.00187942e+02
693             	3.00188053e+02
694             	3.00188158e+02
695             	3.00188117e+02
696             	3.00188134e+02
697             	3.00188047e+02
698             	3.00187864e+02
699             	3.00187742e+02
700             	3.00187618e+02
701             	3.00187517e+02
702             	3.00187568e+02
703             	3.00187500e+02
704             	3.00187493e+02
705             	3.00187528e+02
706             	3.00187592e+02
707             	3.00187605e+02
708             	3.00187511e+02
709             	3.00187392e+02
710             	3.00187310e+02
711             	3.00187276e+02
712             	3.00187279e+02
713             	3.00187308e+02
714             	3.00187405e+02
715             	3.00187462e+02
716             	3.00187582e+02
717             	3.00187722e+02
718             	3.00187731e+02
719             	3.00187729e+02
720             	3.00187701e+02
721             	3.00187684e+02
722             	3.00187694e+02
723             	3.00187712e+02
724             	3.00187553e+02
725             	3.00187720e+02
726             	3.00187760e+02
727             	3.00187802e+02
728             	3.00187770e+02
729             	3.00187761e+02
730             	3.00187733e+02
731             	3.00187608e+02
732             	3.00187646e+02
733             	3.00187655e+02
734             	3.00187561e+02
735             	3.00187703e+02
736             	3.00187515e+02
737             	3.00187438e+02
738             	3.00187413e+02
739             	3.00187437e+02
740             	3.00187492e+02
741             	3.00187189e+02
742             	3.00187301e+02
743             	3.00187152e+02
744             	3.00187208e+02
745             	3.00187233e+02
746             	3.00187223e+02
747             	3.00187235e+02
748             	3.00187154e+02
749             	3.00187200e+02
750             	3.00187236e+02
751             	3.00187120e+02
752             	3.00187086e+02
753             	3.00187098e+02
754             	3.00187136e+02
755             	3.00187189e+02
756             	3.00187214e+02
757             	3.00187298e+02
758             	3.00187367e+02
759             	3.00187409e+02
760             	3.00187425e+02
761             	3.00187408e+02
762             	3.00187406e+02
763             	3.00187514e+02
764             	3.00187582e+02
765             	3.00187641e+02
766             	3.00187549e+02
767             	3.00187597e+02
768             	3.00187618e+02
769             	3.00187607e+02
770             	3.00187534e+02
771             	3.00187477e+02
772             	3.00187413e+02
773             	3.00187476e+02
774             	3.00187497e+02
775             	3.00187638e+02
776             	3.00187743e+02
777             	3.00187638e+02
778             	3.00187617e+02
779             	3.00187585e+02
780             	3.00187533e+02
781             	3.00187351e+02
782             	3.00187213e+02
783             	3.00187351e+02
784             	3.00187397e+02
785             	3.00187346e+02
786             	3.00187332e+02
787             	3.00187403e+02
788             	3.00187396e+02
789             	3.00187334e+02
790             	3.00187437e+02
791             	3.00187307e+02
792             	3.00187242e+02
793             	3.00187230e+02
794             	3.00187263e+02
795             	3.00187287e+02
796             	3.00187256e+02
797             	3.00187079e+02
798             	3.00187086e+02
799             	3.00187225e+02
800             	3.00187286e+02
801             	3.00187309e+02
802             	3.00187398e+02
803             	3.00187590e+02
804             	3.00187781e+02
805             	3.00187620e+02
806             	3.00187489e+02
807             	3.00187447e+02
808             	3.00187452e+02
809             	3.00187497e+02
810             	3.00187491e+02
811             	3.00187474e+02
812             	3.00187507e+02
813             	3.00187482e+02
814             	3.00187514e+02
815             	3.00187603e+02
816             	3.00187620e+02
817             	3.00187592e+02
818             	3.00187483e+02
819             	3.00187376e+02
820             	3.00187400e+02
821             	3.00187421e+02
822             	3.00187344e+02
823             	3.00187340e+02
824             	3.00187259e+02
825             	3.00187224e+02
826             	3.00187188e+02
827             	3.00187169e+02
828             	3.00187162e+02
829             	3.00187173e+02
830             	3.00187156e+02
831             	3.00187063e+02
832             	3.00187025e+02
833             	3.00187033e+02
834             	3.00187137e+02
835             	3.00187161e+02
836             	3.00187171e+02
837             	3.00187141e+02
838             	3.00187214e+02
839             	3.00187240e+02
840             	3.00187497e+02
841             	3.00187407e+02
842             	3.00187347e+02
843             	3.00187411e+02
844             	3.00187486e+02
845             	3.00187509e+02
846             	3.00187367e+02
847             	3.00187252e+02
848             	3.00187181e+02
849             	3.00187301e+02
850             	3.00187348e+02
851             	3.00187398e+02
852             	3.00187829e+02
853             	3.00188027e+02
854             	3.00187782e+02
855             	3.00187711e+02
856             	3.00187723e+02
857             	3.00187741e+02
858             	3.00187774e+02
859             	3.00187649e+02
860             	3.00187388e+02
861             	3.00187527e+02
862             	3.00187540e+02
863             	3.00187419e+02
864             	3.00187293e+02
865             	3.00187156e+02
866             	3.00187161e+02
867             	3.00187245e+02
868             	3.00187312e+02
869             	3.00187290e+02
870             	3.00187272e+02
871             	3.00187129e+02
872             	3.00187045e+02
873             	3.00186999e+02
874             	3.00187006e+02
875             	3.00187070e+02
876             	3.00186953e+02
877             	3.00186924e+02
878             	3.00186922e+02
879             	3.00186976e+02
880             	3.00187047e+02
881             	3.00187211e+02
882             	3.00187187e+02
883             	3.00187093e+02
884             	3.00186974e+02
885             	3.00187048e+02
886             	3.00187176e+02
887             	3.00187322e+02
888             	3.00187176e+02
889             	3.00186993e+02
890             	3.00187118e+02
891             	3.00187226e+02
892             	3.00187354e+02
893             	3.00187390e+02
894             	3.00187248e+02
895             	3.00187195e+02
896             	3.00187063e+02
897             	3.00187080e+02
898             	3.00187195e+02
899             	3.00187154e+02
900             	3.00187060e+02
901             	3.00187007e+02
902             	3.00187150e+02
903             	3.00187175e+02
904             	3.00187507e+02
905             	3.00187260e+02
906             	3.00187156e+02
907             	3.00187088e+02
908             	3.00187156e+02
909             	3.00187249e+02
910             	3.00187291e+02
911             	3.00187223e+02
912             	3.00187052e+02
913             	3.00186962e+02
914             	3.00187114e+02
915             	3.00187219e+02
916             	3.00187318e+02
917             	3.00187381e+02
918             	3.00187307e+02
919             	3.00187243e+02
920             	3.00187161e+02
921             	3.00187281e+02
922             	3.00187205e+02
923             	3.00187166e+02
924             	3.00187153e+02
925             	3.00187185e+02
926             	3.00187373e+02
927             	3.00187084e+02
928             	3.00186887e+02
929             	3.00187108e+02
930             	3.00187208e+02
931             	3.00187246e+02
932             	3.00187230e+02
933             	3.00187296e+02