# Region        : cellZone fluid
# Cells         : 8783
# Volume        : 1.69508944e+01
# Time          	volAverage(T)
1               	3.00000034e+02
2               	3.00000071e+02
3               	3.00000367e+02
4               	3.00000841e+02
5               	3.00001189e+02
6               	3.00001585e+02
7               	3.00002008e+02
8               	3.00002834e+02
9               	3.00003464e+02
10              	3.00004221e+02
11              	3.00005090e+02
12              	3.00006078e+02
13              	3.00007283e+02
14              	3.00008504e+02
15              	3.00009563e+02
16              	3.00011318e+02
17              	3.00012485e+02
18              	3.00013654e+02
19              	3.00014795e+02
20              	3.00015926e+02
21              	3.00017416e+02
22              	3.00018924e+02
23              	3.00020470e+02
24              	3.00021960e+02
25              	3.00023502e+02
26              	3.00025114e+02
27              	3.00027019e+02
28              	3.00029264e+02
29              	3.00031400e+02
30              	3.00033073e+02
31              	3.00034924e+02
32              	3.00036799e+02
33              	3.00038679e+02
34              	3.00040849e+02
35              	3.00042676e+02
36              	3.00044932e+02
37              	3.00047156e+02
38              	3.00049534e+02
39              	3.00052599e+02
40              	3.00056030e+02
41              	3.00058835e+02
42              	3.00061491e+02
43              	3.00063948e+02
44              	3.00065871e+02
45              	3.00067934e+02
46              	3.00069856e+02
47              	3.00072619e+02
48              	3.00074903e+02
49              	3.00077485e+02
50              	3.00080652e+02
51              	3.00084091e+02
52              	3.00086994e+02
53              	3.00090087e+02
54              	3.00092660e+02
55              	3.00095191e+02
56              	3.00097017e+02
57              	3.00099093e+02
58              	3.00101388e+02
59              	3.00103312e+02
60              	3.00104924e+02
61              	3.00106688e+02
62              	3.00109038e+02
63              	3.00111245e+02
64              	3.00113921e+02
65              	3.00116224e+02
66              	3.00118585e+02
67              	3.00120846e+02
68              	3.00123402e+02
69              	3.00126320e+02
70              	3.00129172e+02
71              	3.00131695e+02
72              	3.00134748e+02
73              	3.00137430e+02
74              	3.00140546e+02
75              	3.00143040e+02
76              	3.00145454e+02
77              	3.00147222e+02
78              	3.00150144e+02
79              	3.00152852e+02
80              	3.00155610e+02
81              	3.00157895e+02
82              	3.00160349e+02
83              	3.00162378e+02
84              	3.00164422e+02
85              	3.00166849e+02
86              	3.00169136e+02
87              	3.00171900e+02
88              	3.00173363e+02
89              	3.00174941e+02
90              	3.00176608e+02
91              	3.00178704e+02
92              	3.00181083e+02
93              	3.00183652e+02
94              	3.00186290e+02
95              	3.00189516e+02
96              	3.00190871e+02
97              	3.00194159e+02
98              	3.00196191e+02
99              	3.00198025e+02
100             	3.00199461e+02
101             	3.00200592e+02
102             	3.00201704e+02
103             	3.00203193e+02
104             	3.00204958e+02
105             	3.00207953e+02
106             	3.00211027e+02
107             	3.00212241e+02
108             	3.00213825e+02
109             	3.00215444e+02
110             	3.00217447e+02
111             	3.00218705e+02
112             	3.00220079e+02
113             	3.00221109e+02
114             	3.00223376e+02
115             	3.00224799e+02
116             	3.00227330e+02
117             	3.00230694e+02
118             	3.00231230e+02
119             	3.00232053e+02
120             	3.00233174e+02
121             	3.00234511e+02
122             	3.00236047e+02
123             	3.00238169e+02
124             	3.00239221e+02
125             	3.00240134e+02
126             	3.00241277e+02
127             	3.00242858e+02
128             	3.00244200e+02
129             	3.00245034e+02
130             	3.00246260e+02
131             	3.00247165e+02
132             	3.00247863e+02
133             	3.00248928e+02
134             	3.00249909e+02
135             	3.00251438e+02
136             	3.00252098e+02
137             	3.00253046e+02
138             	3.00254142e+02
139             	3.00255290e+02
140             	3.00256424e+02
141             	3.00257535e+02
142             	3.00258421e+02
143             	3.00259309e+02
144             	3.00259729e+02
145             	3.00260708e+02
146             	3.00261451e+02
147             	3.00262219e+02
148             	3.00263158e+02
149             	3.00264049e+02
150             	3.00264821e+02
151             	3.00265605e+02
152             	3.00266429e+02
153             	3.00267409e+02
154             	3.00268385e+02
155             	3.00269142e+02
156             	3.00269983e+02
157             	3.00270792e+02
158             	3.00271679e+02
159             	3.00272645e+02
160             	3.00273429e+02
161             	3.00274249e+02
162             	3.00275085e+02
163             	3.00275934e+02
164             	3.00276809e+02
165             	3.00277679e+02
166             	3.00278372e+02
167             	3.00279329e+02
168             	3.00279958e+02
169             	3.00280898e+02
170             	3.00281837e+02
171             	3.00282715e+02
172             	3.00283551e+02
173             	3.00284322e+02
174             	3.00284991e+02
175             	3.00285643e+02
176             	3.00286263e+02
177             	3.00286860e+02
178             	3.00287472e+02
179             	3.00288120e+02
180             	3.00288602e+02
181             	3.00289307e+02
182             	3.00289759e+02
183             	3.00290202e+02
184             	3.00290681e+02
185             	3.00291158e+02
186             	3.00291643e+02
187             	3.00292174e+02
188             	3.00292675e+02
189             	3.00292841e+02
190             	3.00293595e+02
191             	3.00294302e+02
192             	3.00294939e+02
193             	3.00295392e+02
194             	3.00295854e+02
195             	3.00296271e+02
196             	3.00296565e+02
197             	3.00296852e+02
198             	3.00297112e+02
199             	3.00297165e+02
200             	3.00297466e+02
201             	3.00297776e+02
202             	3.00297893e+02
203             	3.00298071e+02
204             	3.00298324e+02
205             	3.00298628e+02
206             	3.00298961e+02
207             	3.00299345e+02
208             	3.00299801e+02
209             	3.00300262e+02
210             	3.00300509e+02
211             	3.00300598e+02
212             	3.00301119e+02
213             	3.00301528e+02
214             	3.00301868e+02
215             	3.00302130e+02
216             	3.00302506e+02
217             	3.00302814e+02
218             	3.00303106e+02
219             	3.00303603e+02
220             	3.00303742e+02
221             	3.00304014e+02
222             	3.00304334e+02
223             	3.00304692e+02
224             	3.00305045e+02
225             	3.00305410e+02
226             	3.00305782e+02
227             	3.00305871e+02
228             	3.00306265e+02
229             	3.00306593e+02
230             	3.00306768e+02
231             	3.00307067e+02
232             	3.00307340e+02
233             	3.00307587e+02
234             	3.00307812e+02
235             	3.00308016e+02
236             	3.00308198e+02
237             	3.00308350e+02
238             	3.00308427e+02
239             	3.00308484e+02
240             	3.00308592e+02
241             	3.00308671e+02
242             	3.00308815e+02
243             	3.00309071e+02
244             	3.00309082e+02
245             	3.00309163e+02
246             	3.00309294e+02
247             	3.00309441e+02
248             	3.00309584e+02
249             	3.00309727e+02
250             	3.00309905e+02
251             	3.00310136e+02
252             	3.00310306e+02
253             	3.00310434e+02
254             	3.00310740e+02
255             	3.00310983e+02
256             	3.00311190e+02
257             	3.00311388e+02
258             	3.00311572e+02
259             	3.00311715e+02
260             	3.00311837e+02
261             	3.00311955e+02
262             	3.00311990e+02
263             	3.00312041e+02
264             	3.00312203e+02
265             	3.00312273e+02
266             	3.00312430e+02
267             	3.00312532e+02
268             	3.00312651e+02
269             	3.00312778e+02
270             	3.00312911e+02
271             	3.00313031e+02
272             	3.00313144e+02
273             	3.00313344e+02
274             	3.00313449e+02
275             	3.00313552e+02
276             	3.00313656e+02
277             	3.00313749e+02
278             	3.00313821e+02
279             	3.00313893e+02
280             	3.00313947e+02
281             	3.00313995e+02
282             	3.00314026e+02
283             	3.00314057e+02
284             	3.00314087e+02
285             	3.00314135e+02
286             	3.00314187e+02
287             	3.00314222e+02
288             	3.00314306e+02
289             	3.00314391e+02
290             	3.00314487e+02
291             	3.00314594e+02
292             	3.00314709e+02
293             	3.00314829e+02
294             	3.00314943e+02
295             	3.00315014e+02
296             	3.00315063e+02
297             	3.00315111e+02
298             	3.00315174e+02
299             	3.00315221e+02
300             	3.00315261e+02
301             	3.00315309e+02
302             	3.00315393e+02
303             	3.00315512e+02
304             	3.00315641e+02
305             	3.00315767e+02
306             	3.00315892e+02
307             	3.00316031e+02
308             	3.00316161e+02
309             	3.00316230e+02
310             	3.00316304e+02
311             	3.00316370e+02
312             	3.00316409e+02
313             	3.00316409e+02
314             	3.00316483e+02
315             	3.00316525e+02
316             	3.00316540e+02
317             	3.00316545e+02
318             	3.00316546e+02
319             	3.00316541e+02
320             	3.00316545e+02
321             	3.00316554e+02
322             	3.00316603e+02
323             	3.00316634e+02
324             	3.00316697e+02
325             	3.00316735e+02
326             	3.00316795e+02
327             	3.00316867e+02
328             	3.00316913e+02
329             	3.00316995e+02
330             	3.00317075e+02
331             	3.00317155e+02
332             	3.00317239e+02
333             	3.00317295e+02
334             	3.00317384e+02
335             	3.00317468e+02
336             	3.00317548e+02
337             	3.00317615e+02
338             	3.00317683e+02
339             	3.00317754e+02
340             	3.00317818e+02
341             	3.00317876e+02
342             	3.00317929e+02
343             	3.00317979e+02
344             	3.00318035e+02
345             	3.00318065e+02
346             	3.00318087e+02
347             	3.00318114e+02
348             	3.00318149e+02
349             	3.00318180e+02
350             	3.00318209e+02
351             	3.00318240e+02
352             	3.00318277e+02
353             	3.00318309e+02
354             	3.00318347e+02
355             	3.00318386e+02
356             	3.00318425e+02
357             	3.00318463e+02
358             	3.00318496e+02
359             	3.00318515e+02
360             	3.00318542e+02
361             	3.00318581e+02
362             	3.00318612e+02
363             	3.00318645e+02
364             	3.00318682e+02
365             	3.00318722e+02
366             	3.00318767e+02
367             	3.00318798e+02
368             	3.00318830e+02
369             	3.00318873e+02
370             	3.00318891e+02
371             	3.00318920e+02
372             	3.00318953e+02
373             	3.00318987e+02
374             	3.00319027e+02
375             	3.00319084e+02
376             	3.00319149e+02
377             	3.00319201e+02
378             	3.00319251e+02
379             	3.00319309e+02
380             	3.00319365e+02
381             	3.00319417e+02
382             	3.00319465e+02
383             	3.00319505e+02
384             	3.00319548e+02
385             	3.00319592e+02
386             	3.00319607e+02
387             	3.00319643e+02
388             	3.00319675e+02
389             	3.00319703e+02
390             	3.00319734e+02
391             	3.00319755e+02
392             	3.00319766e+02
393             	3.00319768e+02
394             	3.00319768e+02
395             	3.00319759e+02
396             	3.00319752e+02
397             	3.00319761e+02
398             	3.00319764e+02
399             	3.00319767e+02
400             	3.00319777e+02
401             	3.00319792e+02
402             	3.00319808e+02
403             	3.00319824e+02
404             	3.00319853e+02
405             	3.00319874e+02
406             	3.00319902e+02
407             	3.00319935e+02
408             	3.00319984e+02
409             	3.00320011e+02
410             	3.00320044e+02
411             	3.00320080e+02
412             	3.00320119e+02
413             	3.00320167e+02
414             	3.00320216e+02
415             	3.00320251e+02
416             	3.00320299e+02
417             	3.00320343e+02
418             	3.00320382e+02
419             	3.00320417e+02
420             	3.00320444e+02
421             	3.00320474e+02
422             	3.00320498e+02
423             	3.00320519e+02
424             	3.00320540e+02
425             	3.00320562e+02
426             	3.00320583e+02
427             	3.00320604e+02
428             	3.00320625e+02
429             	3.00320644e+02
430             	3.00320646e+02
431             	3.00320666e+02
432             	3.00320683e+02
433             	3.00320697e+02
434             	3.00320709e+02
435             	3.00320722e+02
436             	3.00320733e+02
437             	3.00320752e+02
438             	3.00320776e+02
439             	3.00320799e+02
440             	3.00320828e+02
441             	3.00320859e+02
442             	3.00320891e+02
443             	3.00320926e+02
444             	3.00320964e+02
445             	3.00321002e+02
446             	3.00321037e+02
447             	3.00321075e+02
448             	3.00321112e+02
449             	3.00321148e+02
450             	3.00321186e+02
451             	3.00321222e+02
452             	3.00321256e+02
453             	3.00321287e+02
454             	3.00321316e+02
455             	3.00321342e+02
456             	3.00321362e+02
457             	3.00321381e+02
458             	3.00321392e+02
459             	3.00321413e+02
460             	3.00321428e+02
461             	3.00321438e+02
462             	3.00321447e+02
463             	3.00321454e+02
464             	3.00321459e+02
465             	3.00321461e+02
466             	3.00321465e+02
467             	3.00321469e+02
468             	3.00321474e+02
469             	3.00321478e+02
470             	3.00321482e+02
471             	3.00321477e+02
472             	3.00321478e+02
473             	3.00321485e+02
474             	3.00321492e+02
475             	3.00321503e+02
476             	3.00321519e+02
477             	3.00321563e+02
478             	3.00321556e+02
479             	3.00321565e+02
480             	3.00321582e+02
481             	3.00321606e+02
482             	3.00321632e+02
483             	3.00321657e+02
484             	3.00321694e+02
485             	3.00321734e+02
486             	3.00321774e+02
487             	3.00321820e+02
488             	3.00321857e+02
489             	3.00321901e+02
490             	3.00321877e+02
491             	3.00321918e+02
492             	3.00321944e+02
493             	3.00321958e+02
494             	3.00321964e+02
495             	3.00321962e+02
496             	3.00321970e+02
497             	3.00321984e+02
498             	3.00322013e+02
499             	3.00321993e+02
500             	3.00321989e+02
501             	3.00321994e+02
502             	3.00322009e+02
503             	3.00322012e+02
504             	3.00322027e+02
505             	3.00322014e+02
506             	3.00322052e+02
507             	3.00322078e+02
508             	3.00322088e+02
509             	3.00322110e+02
510             	3.00322127e+02
511             	3.00322143e+02
512             	3.00322146e+02
513             	3.00322167e+02
514             	3.00322185e+02
515             	3.00322204e+02
516             	3.00322218e+02
517             	3.00322234e+02
518             	3.00322252e+02
519             	3.00322272e+02
520             	3.00322293e+02
521             	3.00322313e+02
522             	3.00322333e+02
523             	3.00322354e+02
524             	3.00322374e+02
525             	3.00322394e+02
526             	3.00322414e+02
527             	3.00322433e+02
528             	3.00322451e+02
529             	3.00322468e+02
530             	3.00322484e+02
531             	3.00322499e+02
532             	3.00322513e+02
533             	3.00322525e+02
534             	3.00322535e+02
535             	3.00322546e+02
536             	3.00322553e+02
537             	3.00322557e+02
538             	3.00322553e+02
539             	3.00322555e+02
540             	3.00322554e+02
541             	3.00322549e+02
542             	3.00322541e+02
543             	3.00322532e+02
544             	3.00322529e+02
545             	3.00322525e+02
546             	3.00322520e+02
547             	3.00322518e+02
548             	3.00322514e+02
549             	3.00322524e+02
550             	3.00322515e+02
551             	3.00322518e+02
552             	3.00322526e+02
553             	3.00322535e+02
554             	3.00322545e+02
555             	3.00322557e+02
556             	3.00322568e+02
557             	3.00322580e+02
558             	3.00322591e+02
559             	3.00322603e+02
560             	3.00322616e+02
561             	3.00322632e+02
562             	3.00322650e+02
563             	3.00322672e+02
564             	3.00322697e+02
565             	3.00322718e+02
566             	3.00322731e+02
567             	3.00322753e+02
568             	3.00322756e+02
569             	3.00322775e+02
570             	3.00322786e+02
571             	3.00322791e+02
572             	3.00322792e+02
573             	3.00322792e+02
574             	3.00322794e+02
575             	3.00322793e+02
576             	3.00322791e+02
577             	3.00322787e+02
578             	3.00322781e+02
579             	3.00322777e+02
580             	3.00322765e+02
581             	3.00322762e+02
582             	3.00322757e+02
583             	3.00322750e+02
584             	3.00322743e+02
585             	3.00322754e+02
586             	3.00322738e+02
587             	3.00322730e+02
588             	3.00322729e+02
589             	3.00322732e+02
590             	3.00322735e+02
591             	3.00322740e+02
592             	3.00322745e+02
593             	3.00322751e+02
594             	3.00322758e+02
595             	3.00322769e+02
596             	3.00322782e+02
597             	3.00322795e+02
598             	3.00322811e+02
599             	3.00322831e+02
600             	3.00322850e+02
601             	3.00322868e+02
602             	3.00322877e+02
603             	3.00322896e+02
604             	3.00322898e+02
605             	3.00322920e+02
606             	3.00322935e+02
607             	3.00322944e+02
608             	3.00322951e+02
609             	3.00322956e+02
610             	3.00322961e+02
611             	3.00322964e+02
612             	3.00322964e+02
613             	3.00322963e+02
614             	3.00322954e+02
615             	3.00322949e+02
616             	3.00322944e+02
617             	3.00322940e+02
618             	3.00322950e+02
619             	3.00322937e+02
620             	3.00322931e+02
621             	3.00322928e+02
622             	3.00322927e+02
623             	3.00322930e+02
624             	3.00322930e+02
625             	3.00322934e+02
626             	3.00322944e+02
627             	3.00322953e+02
628             	3.00322964e+02
629             	3.00322974e+02
630             	3.00322983e+02
631             	3.00322977e+02
632             	3.00323001e+02
633             	3.00323019e+02
634             	3.00323037e+02
635             	3.00323052e+02
636             	3.00323063e+02
637             	3.00323070e+02
638             	3.00323076e+02
639             	3.00323074e+02
640             	3.00323073e+02
641             	3.00323070e+02
642             	3.00323064e+02
643             	3.00323056e+02
644             	3.00323068e+02
645             	3.00323061e+02
646             	3.00323057e+02
647             	3.00323056e+02
648             	3.00323057e+02
649             	3.00323061e+02
650             	3.00323066e+02
651             	3.00323073e+02
652             	3.00323081e+02
653             	3.00323089e+02
654             	3.00323098e+02
655             	3.00323109e+02
656             	3.00323120e+02
657             	3.00323132e+02
658             	3.00323143e+02
659             	3.00323154e+02
660             	3.00323150e+02
661             	3.00323164e+02
662             	3.00323173e+02
663             	3.00323179e+02
664             	3.00323182e+02
665             	3.00323184e+02
666             	3.00323186e+02
667             	3.00323187e+02
668             	3.00323187e+02
669             	3.00323186e+02
670             	3.00323185e+02
671             	3.00323183e+02
672             	3.00323181e+02
673             	3.00323180e+02
674             	3.00323184e+02
675             	3.00323185e+02
676             	3.00323188e+02
677             	3.00323193e+02
678             	3.00323199e+02
679             	3.00323209e+02
680             	3.00323221e+02
681             	3.00323235e+02
682             	3.00323242e+02
683             	3.00323251e+02
684             	3.00323261e+02
685             	3.00323270e+02
686             	3.00323278e+02
687             	3.00323282e+02
688             	3.00323285e+02
689             	3.00323290e+02
690             	3.00323290e+02
691             	3.00323289e+02
692             	3.00323288e+02
693             	3.00323288e+02
694             	3.00323287e+02
695             	3.00323285e+02
696             	3.00323281e+02
697             	3.00323282e+02
698             	3.00323282e+02
699             	3.00323282e+02
700             	3.00323282e+02
701             	3.00323283e+02
702             	3.00323286e+02
703             	3.00323289e+02
704             	3.00323293e+02
705             	3.00323299e+02
706             	3.00323302e+02
707             	3.00323308e+02
708             	3.00323316e+02
709             	3.00323325e+02
710             	3.00323335e+02
711             	3.00323346e+02
712             	3.00323357e+02
713             	3.00323367e+02
714             	3.00323377e+02
715             	3.00323388e+02
716             	3.00323397e+02
717             	3.00323405e+02
718             	3.00323413e+02
719             	3.00323421e+02
720             	3.00323428e+02
721             	3.00323435e+02
722             	3.00323442e+02
723             	3.00323448e+02
724             	3.00323454e+02
725             	3.00323459e+02
726             	3.00323451e+02
727             	3.00323462e+02
728             	3.00323468e+02
729             	3.00323471e+02
730             	3.00323472e+02
731             	3.00323472e+02
732             	3.00323470e+02
733             	3.00323469e+02
734             	3.00323464e+02
735             	3.00323459e+02
736             	3.00323462e+02
737             	3.00323454e+02
738             	3.00323449e+02
739             	3.00323452e+02
740             	3.00323451e+02
741             	3.00323452e+02
742             	3.00323454e+02
743             	3.00323458e+02
744             	3.00323462e+02
745             	3.00323467e+02
746             	3.00323473e+02
747             	3.00323480e+02
748             	3.00323488e+02
749             	3.00323497e+02
750             	3.00323506e+02
751             	3.00323510e+02
752             	3.00323516e+02
753             	3.00323526e+02
754             	3.00323534e+02
755             	3.00323541e+02
756             	3.00323547e+02
757             	3.00323552e+02
758             	3.00323548e+02
759             	3.00323560e+02
760             	3.00323567e+02
761             	3.00323573e+02
762             	3.00323577e+02
763             	3.00323581e+02
764             	3.00323583e+02
765             	3.00323584e+02
766             	3.00323585e+02
767             	3.00323586e+02
768             	3.00323587e+02
769             	3.00323588e+02
770             	3.00323590e+02
771             	3.00323588e+02
772             	3.00323586e+02
773             	3.00323581e+02
774             	3.00323576e+02
775             	3.00323573e+02
776             	3.00323572e+02
777             	3.00323573e+02
778             	3.00323578e+02
779             	3.00323577e+02
780             	3.00323582e+02
781             	3.00323579e+02
782             	3.00323580e+02
783             	3.00323582e+02
784             	3.00323582e+02
785             	3.00323585e+02
786             	3.00323587e+02
787             	3.00323590e+02
788             	3.00323594e+02
789             	3.00323597e+02
790             	3.00323601e+02
791             	3.00323604e+02
792             	3.00323607e+02
793             	3.00323611e+02
794             	3.00323616e+02
795             	3.00323620e+02
796             	3.00323625e+02
797             	3.00323629e+02
798             	3.00323633e+02
799             	3.00323637e+02
800             	3.00323640e+02
801             	3.00323643e+02
802             	3.00323644e+02
803             	3.00323650e+02
804             	3.00323654e+02
805             	3.00323657e+02
806             	3.00323660e+02
807             	3.00323663e+02
808             	3.00323665e+02
809             	3.00323668e+02
810             	3.00323672e+02
811             	3.00323675e+02
812             	3.00323675e+02
813             	3.00323675e+02
814             	3.00323676e+02
815             	3.00323677e+02
816             	3.00323677e+02
817             	3.00323678e+02
818             	3.00323677e+02
819             	3.00323676e+02
820             	3.00323675e+02
821             	3.00323673e+02
822             	3.00323672e+02
823             	3.00323675e+02
824             	3.00323675e+02
825             	3.00323677e+02
826             	3.00323682e+02
827             	3.00323681e+02
828             	3.00323683e+02
829             	3.00323685e+02
830             	3.00323688e+02
831             	3.00323691e+02
832             	3.00323694e+02
833             	3.00323697e+02
834             	3.00323700e+02
835             	3.00323703e+02
836             	3.00323706e+02
837             	3.00323709e+02
838             	3.00323712e+02
839             	3.00323715e+02
840             	3.00323718e+02
841             	3.00323721e+02
842             	3.00323721e+02
843             	3.00323723e+02
844             	3.00323724e+02
845             	3.00323725e+02
846             	3.00323725e+02
847             	3.00323725e+02
848             	3.00323724e+02
849             	3.00323723e+02
850             	3.00323722e+02
851             	3.00323722e+02
852             	3.00323721e+02
853             	3.00323724e+02
854             	3.00323727e+02
855             	3.00323728e+02
856             	3.00323731e+02
857             	3.00323734e+02
858             	3.00323738e+02
859             	3.00323741e+02
860             	3.00323747e+02
861             	3.00323749e+02
862             	3.00323750e+02
863             	3.00323755e+02
864             	3.00323758e+02
865             	3.00323760e+02
866             	3.00323762e+02
867             	3.00323762e+02
868             	3.00323762e+02
869             	3.00323762e+02
870             	3.00323761e+02
871             	3.00323763e+02
872             	3.00323764e+02
873             	3.00323765e+02
874             	3.00323765e+02
875             	3.00323765e+02
876             	3.00323765e+02
877             	3.00323766e+02
878             	3.00323766e+02
879             	3.00323767e+02
880             	3.00323767e+02
881             	3.00323769e+02
882             	3.00323767e+02
883             	3.00323764e+02
884             	3.00323764e+02
885             	3.00323763e+02
886             	3.00323764e+02
887             	3.00323764e+02
888             	3.00323764e+02
889             	3.00323763e+02
890             	3.00323763e+02
891             	3.00323764e+02
892             	3.00323765e+02
893             	3.00323766e+02
894             	3.00323768e+02
895             	3.00323770e+02
896             	3.00323770e+02
897             	3.00323771e+02
898             	3.00323771e+02
899             	3.00323772e+02
900             	3.00323772e+02
901             	3.00323773e+02
902             	3.00323775e+02
903             	3.00323776e+02
904             	3.00323777e+02
905             	3.00323779e+02
906             	3.00323781e+02
907             	3.00323782e+02
908             	3.00323784e+02
909             	3.00323785e+02
910             	3.00323786e+02
911             	3.00323786e+02
912             	3.00323786e+02
913             	3.00323786e+02
914             	3.00323786e+02
915             	3.00323786e+02
916             	3.00323787e+02
917             	3.00323787e+02
918             	3.00323786e+02
919             	3.00323787e+02
920             	3.00323788e+02
921             	3.00323788e+02
922             	3.00323790e+02
923             	3.00323792e+02
924             	3.00323794e+02
925             	3.00323795e+02
926             	3.00323797e+02
927             	3.00323799e+02
928             	3.00323801e+02
929             	3.00323804e+02
930             	3.00323806e+02
931             	3.00323809e+02
932             	3.00323811e+02
933             	3.00323813e+02