# Region        : cellZone fluid
# Cells         : 8465
# Volume        : 1.60020929e+01
# Time          	volAverage(T)
1               	2.99999730e+02
2               	2.99999682e+02
3               	2.99999870e+02
4               	3.00000190e+02
5               	3.00000466e+02
6               	3.00000738e+02
7               	3.00001024e+02
8               	3.00001353e+02
9               	3.00001818e+02
10              	3.00002197e+02
11              	3.00002611e+02
12              	3.00003207e+02
13              	3.00003789e+02
14              	3.00004438e+02
15              	3.00005261e+02
16              	3.00006032e+02
17              	3.00006755e+02
18              	3.00007538e+02
19              	3.00008300e+02
20              	3.00009017e+02
21              	3.00009794e+02
22              	3.00010377e+02
23              	3.00010934e+02
24              	3.00011513e+02
25              	3.00012038e+02
26              	3.00012816e+02
27              	3.00013596e+02
28              	3.00014199e+02
29              	3.00014942e+02
30              	3.00015678e+02
31              	3.00016540e+02
32              	3.00017853e+02
33              	3.00018694e+02
34              	3.00020064e+02
35              	3.00021361e+02
36              	3.00022310e+02
37              	3.00023283e+02
38              	3.00023992e+02
39              	3.00025071e+02
40              	3.00026069e+02
41              	3.00026837e+02
42              	3.00027519e+02
43              	3.00028567e+02
44              	3.00029583e+02
45              	3.00030456e+02
46              	3.00031349e+02
47              	3.00032048e+02
48              	3.00032719e+02
49              	3.00033626e+02
50              	3.00034502e+02
51              	3.00035030e+02
52              	3.00035934e+02
53              	3.00036456e+02
54              	3.00037614e+02
55              	3.00038240e+02
56              	3.00038758e+02
57              	3.00039542e+02
58              	3.00040271e+02
59              	3.00041091e+02
60              	3.00042008e+02
61              	3.00042881e+02
62              	3.00043929e+02
63              	3.00045121e+02
64              	3.00046499e+02
65              	3.00047792e+02
66              	3.00049038e+02
67              	3.00049565e+02
68              	3.00050931e+02
69              	3.00051260e+02
70              	3.00051605e+02
71              	3.00053395e+02
72              	3.00055306e+02
73              	3.00056787e+02
74              	3.00058077e+02
75              	3.00058977e+02
76              	3.00060341e+02
77              	3.00061965e+02
78              	3.00062924e+02
79              	3.00063676e+02
80              	3.00064222e+02
81              	3.00064874e+02
82              	3.00065577e+02
83              	3.00066342e+02
84              	3.00067176e+02
85              	3.00068322e+02
86              	3.00069407e+02
87              	3.00070290e+02
88              	3.00071074e+02
89              	3.00072540e+02
90              	3.00073765e+02
91              	3.00074754e+02
92              	3.00075902e+02
93              	3.00076947e+02
94              	3.00078163e+02
95              	3.00079635e+02
96              	3.00081349e+02
97              	3.00083546e+02
98              	3.00085297e+02
99              	3.00086986e+02
100             	3.00089088e+02
101             	3.00089289e+02
102             	3.00091023e+02
103             	3.00091850e+02
104             	3.00092902e+02
105             	3.00093898e+02
106             	3.00094548e+02
107             	3.00095182e+02
108             	3.00095856e+02
109             	3.00096821e+02
110             	3.00098109e+02
111             	3.00099733e+02
112             	3.00101429e+02
113             	3.00102869e+02
114             	3.00104685e+02
115             	3.00106396e+02
116             	3.00108239e+02
117             	3.00109564e+02
118             	3.00110842e+02
119             	3.00111693e+02
120             	3.00112862e+02
121             	3.00113965e+02
122             	3.00114873e+02
123             	3.00115940e+02
124             	3.00117455e+02
125             	3.00118137e+02
126             	3.00119839e+02
127             	3.00121117e+02
128             	3.00122749e+02
129             	3.00123632e+02
130             	3.00124769e+02
131             	3.00126129e+02
132             	3.00126543e+02
133             	3.00126984e+02
134             	3.00126448e+02
135             	3.00127068e+02
136             	3.00127272e+02
137             	3.00126502e+02
138             	3.00125883e+02
139             	3.00125358e+02
140             	3.00125426e+02
141             	3.00125915e+02
142             	3.00126326e+02
143             	3.00126958e+02
144             	3.00127955e+02
145             	3.00128455e+02
146             	3.00128748e+02
147             	3.00129140e+02
148             	3.00129449e+02
149             	3.00130984e+02
150             	3.00131714e+02
151             	3.00132659e+02
152             	3.00133884e+02
153             	3.00135446e+02
154             	3.00136977e+02
155             	3.00138424e+02
156             	3.00139820e+02
157             	3.00141159e+02
158             	3.00142748e+02
159             	3.00143245e+02
160             	3.00143508e+02
161             	3.00143680e+02
162             	3.00144184e+02
163             	3.00144761e+02
164             	3.00145249e+02
165             	3.00145899e+02
166             	3.00146034e+02
167             	3.00146628e+02
168             	3.00146941e+02
169             	3.00147500e+02
170             	3.00147887e+02
171             	3.00148534e+02
172             	3.00148757e+02
173             	3.00149345e+02
174             	3.00149880e+02
175             	3.00151213e+02
176             	3.00152445e+02
177             	3.00153573e+02
178             	3.00154715e+02
179             	3.00154973e+02
180             	3.00155929e+02
181             	3.00156327e+02
182             	3.00156184e+02
183             	3.00156742e+02
184             	3.00157213e+02
185             	3.00157880e+02
186             	3.00158610e+02
187             	3.00158844e+02
188             	3.00159240e+02
189             	3.00159469e+02
190             	3.00160377e+02
191             	3.00161155e+02
192             	3.00161913e+02
193             	3.00162748e+02
194             	3.00163587e+02
195             	3.00164142e+02
196             	3.00164911e+02
197             	3.00165452e+02
198             	3.00165896e+02
199             	3.00166465e+02
200             	3.00166865e+02
201             	3.00167428e+02
202             	3.00167882e+02
203             	3.00168426e+02
204             	3.00168908e+02
205             	3.00169368e+02
206             	3.00170083e+02
207             	3.00170560e+02
208             	3.00170903e+02
209             	3.00171151e+02
210             	3.00171750e+02
211             	3.00172322e+02
212             	3.00173065e+02
213             	3.00173745e+02
214             	3.00174448e+02
215             	3.00174724e+02
216             	3.00174730e+02
217             	3.00174683e+02
218             	3.00174489e+02
219             	3.00174890e+02
220             	3.00174659e+02
221             	3.00175056e+02
222             	3.00175144e+02
223             	3.00174580e+02
224             	3.00174263e+02
225             	3.00174116e+02
226             	3.00174184e+02
227             	3.00174086e+02
228             	3.00174288e+02
229             	3.00174437e+02
230             	3.00174510e+02
231             	3.00174350e+02
232             	3.00173901e+02
233             	3.00174122e+02
234             	3.00174605e+02
235             	3.00174309e+02
236             	3.00174166e+02
237             	3.00174261e+02
238             	3.00174363e+02
239             	3.00173921e+02
240             	3.00173681e+02
241             	3.00173833e+02
242             	3.00174165e+02
243             	3.00174159e+02
244             	3.00174080e+02
245             	3.00173918e+02
246             	3.00174554e+02
247             	3.00174526e+02
248             	3.00174346e+02
249             	3.00174374e+02
250             	3.00174561e+02
251             	3.00174615e+02
252             	3.00174633e+02
253             	3.00174954e+02
254             	3.00175381e+02
255             	3.00175826e+02
256             	3.00176166e+02
257             	3.00176781e+02
258             	3.00177466e+02
259             	3.00178036e+02
260             	3.00178581e+02
261             	3.00179188e+02
262             	3.00179840e+02
263             	3.00180457e+02
264             	3.00180969e+02
265             	3.00181499e+02
266             	3.00182299e+02
267             	3.00182864e+02
268             	3.00183440e+02
269             	3.00183971e+02
270             	3.00184427e+02
271             	3.00184905e+02
272             	3.00185372e+02
273             	3.00185746e+02
274             	3.00185886e+02
275             	3.00185840e+02
276             	3.00186140e+02
277             	3.00186433e+02
278             	3.00186303e+02
279             	3.00186096e+02
280             	3.00186326e+02
281             	3.00186435e+02
282             	3.00186758e+02
283             	3.00186719e+02
284             	3.00186925e+02
285             	3.00187118e+02
286             	3.00187116e+02
287             	3.00187068e+02
288             	3.00187284e+02
289             	3.00187455e+02
290             	3.00187632e+02
291             	3.00187329e+02
292             	3.00187494e+02
293             	3.00188030e+02
294             	3.00188433e+02
295             	3.00188801e+02
296             	3.00189268e+02
297             	3.00189914e+02
298             	3.00190180e+02
299             	3.00190778e+02
300             	3.00191215e+02
301             	3.00191850e+02
302             	3.00192351e+02
303             	3.00192593e+02
304             	3.00192392e+02
305             	3.00193028e+02
306             	3.00193325e+02
307             	3.00193502e+02
308             	3.00193625e+02
309             	3.00194394e+02
310             	3.00195052e+02
311             	3.00195287e+02
312             	3.00195521e+02
313             	3.00196050e+02
314             	3.00196480e+02
315             	3.00196788e+02
316             	3.00196992e+02
317             	3.00197205e+02
318             	3.00197464e+02
319             	3.00197798e+02
320             	3.00197841e+02
321             	3.00198179e+02
322             	3.00198455e+02
323             	3.00198679e+02
324             	3.00198866e+02
325             	3.00199004e+02
326             	3.00199169e+02
327             	3.00199384e+02
328             	3.00199598e+02
329             	3.00199831e+02
330             	3.00200061e+02
331             	3.00200535e+02
332             	3.00200938e+02
333             	3.00201540e+02
334             	3.00201613e+02
335             	3.00201755e+02
336             	3.00202148e+02
337             	3.00202420e+02
338             	3.00202615e+02
339             	3.00202990e+02
340             	3.00203262e+02
341             	3.00203565e+02
342             	3.00203898e+02
343             	3.00204376e+02
344             	3.00204870e+02
345             	3.00205498e+02
346             	3.00205971e+02
347             	3.00206216e+02
348             	3.00206766e+02
349             	3.00207101e+02
350             	3.00207279e+02
351             	3.00207347e+02
352             	3.00207619e+02
353             	3.00207912e+02
354             	3.00208405e+02
355             	3.00208644e+02
356             	3.00208697e+02
357             	3.00209061e+02
358             	3.00209422e+02
359             	3.00209681e+02
360             	3.00209999e+02
361             	3.00210061e+02
362             	3.00210246e+02
363             	3.00210285e+02
364             	3.00210509e+02
365             	3.00210898e+02
366             	3.00211125e+02
367             	3.00211536e+02
368             	3.00211837e+02
369             	3.00211968e+02
370             	3.00212007e+02
371             	3.00212445e+02
372             	3.00212469e+02
373             	3.00212524e+02
374             	3.00212572e+02
375             	3.00212845e+02
376             	3.00213145e+02
377             	3.00213525e+02
378             	3.00213505e+02
379             	3.00213901e+02
380             	3.00214308e+02
381             	3.00214702e+02
382             	3.00215016e+02
383             	3.00215227e+02
384             	3.00215296e+02
385             	3.00215377e+02
386             	3.00215450e+02
387             	3.00215629e+02
388             	3.00215956e+02
389             	3.00216306e+02
390             	3.00216477e+02
391             	3.00216507e+02
392             	3.00216799e+02
393             	3.00217018e+02
394             	3.00217261e+02
395             	3.00217416e+02
396             	3.00217571e+02
397             	3.00217579e+02
398             	3.00217738e+02
399             	3.00218050e+02
400             	3.00218335e+02
401             	3.00218593e+02
402             	3.00218966e+02
403             	3.00219124e+02
404             	3.00219251e+02
405             	3.00219517e+02
406             	3.00219761e+02
407             	3.00219934e+02
408             	3.00220046e+02
409             	3.00220201e+02
410             	3.00220309e+02
411             	3.00220445e+02
412             	3.00220559e+02
413             	3.00220738e+02
414             	3.00220936e+02
415             	3.00221047e+02
416             	3.00221272e+02
417             	3.00221450e+02
418             	3.00221552e+02
419             	3.00221724e+02
420             	3.00221849e+02
421             	3.00221976e+02
422             	3.00222214e+02
423             	3.00222302e+02
424             	3.00222397e+02
425             	3.00222484e+02
426             	3.00222651e+02
427             	3.00222766e+02
428             	3.00222874e+02
429             	3.00223009e+02
430             	3.00223138e+02
431             	3.00223264e+02
432             	3.00223438e+02
433             	3.00223608e+02
434             	3.00223795e+02
435             	3.00224019e+02
436             	3.00224279e+02
437             	3.00224554e+02
438             	3.00224808e+02
439             	3.00225089e+02
440             	3.00225343e+02
441             	3.00225681e+02
442             	3.00225904e+02
443             	3.00226222e+02
444             	3.00226454e+02
445             	3.00226665e+02
446             	3.00226827e+02
447             	3.00226943e+02
448             	3.00227099e+02
449             	3.00227216e+02
450             	3.00227419e+02
451             	3.00227619e+02
452             	3.00227692e+02
453             	3.00227715e+02
454             	3.00227655e+02
455             	3.00227707e+02
456             	3.00227765e+02
457             	3.00227838e+02
458             	3.00227880e+02
459             	3.00227928e+02
460             	3.00228042e+02
461             	3.00228127e+02
462             	3.00228286e+02
463             	3.00228463e+02
464             	3.00228622e+02
465             	3.00228843e+02
466             	3.00228970e+02
467             	3.00229295e+02
468             	3.00229478e+02
469             	3.00229605e+02
470             	3.00229734e+02
471             	3.00229856e+02
472             	3.00229971e+02
473             	3.00230122e+02
474             	3.00230394e+02
475             	3.00230644e+02
476             	3.00230859e+02
477             	3.00231078e+02
478             	3.00231256e+02
479             	3.00231411e+02
480             	3.00231615e+02
481             	3.00231779e+02
482             	3.00231945e+02
483             	3.00232116e+02
484             	3.00232240e+02
485             	3.00232349e+02
486             	3.00232502e+02
487             	3.00232670e+02
488             	3.00232744e+02
489             	3.00232925e+02
490             	3.00233106e+02
491             	3.00233278e+02
492             	3.00233432e+02
493             	3.00233425e+02
494             	3.00233538e+02
495             	3.00233635e+02
496             	3.00233690e+02
497             	3.00233739e+02
498             	3.00233776e+02
499             	3.00233808e+02
500             	3.00233855e+02
501             	3.00233931e+02
502             	3.00234041e+02
503             	3.00234145e+02
504             	3.00234271e+02
505             	3.00234410e+02
506             	3.00234561e+02
507             	3.00234719e+02
508             	3.00234809e+02
509             	3.00235000e+02
510             	3.00235145e+02
511             	3.00235306e+02
512             	3.00235505e+02
513             	3.00235638e+02
514             	3.00235810e+02
515             	3.00235973e+02
516             	3.00236115e+02
517             	3.00236258e+02
518             	3.00236396e+02
519             	3.00236524e+02
520             	3.00236641e+02
521             	3.00236752e+02
522             	3.00236857e+02
523             	3.00236974e+02
524             	3.00237076e+02
525             	3.00237165e+02
526             	3.00237280e+02
527             	3.00237386e+02
528             	3.00237499e+02
529             	3.00237613e+02
530             	3.00237750e+02
531             	3.00237892e+02
532             	3.00238039e+02
533             	3.00238203e+02
534             	3.00238376e+02
535             	3.00238548e+02
536             	3.00238676e+02
537             	3.00238863e+02
538             	3.00239017e+02
539             	3.00239183e+02
540             	3.00239340e+02
541             	3.00239490e+02
542             	3.00239629e+02
543             	3.00239756e+02
544             	3.00239868e+02
545             	3.00240009e+02
546             	3.00240107e+02
547             	3.00240200e+02
548             	3.00240277e+02
549             	3.00240371e+02
550             	3.00240455e+02
551             	3.00240549e+02
552             	3.00240632e+02
553             	3.00240709e+02
554             	3.00240782e+02
555             	3.00240854e+02
556             	3.00240912e+02
557             	3.00240967e+02
558             	3.00241002e+02
559             	3.00241080e+02
560             	3.00241154e+02
561             	3.00241241e+02
562             	3.00241362e+02
563             	3.00241482e+02
564             	3.00241621e+02
565             	3.00241763e+02
566             	3.00241907e+02
567             	3.00242047e+02
568             	3.00242167e+02
569             	3.00242290e+02
570             	3.00242397e+02
571             	3.00242502e+02
572             	3.00242609e+02
573             	3.00242735e+02
574             	3.00242890e+02
575             	3.00243032e+02
576             	3.00243182e+02
577             	3.00243329e+02
578             	3.00243476e+02
579             	3.00243601e+02
580             	3.00243698e+02
581             	3.00243831e+02
582             	3.00243946e+02
583             	3.00244046e+02
584             	3.00244140e+02
585             	3.00244236e+02
586             	3.00244338e+02
587             	3.00244461e+02
588             	3.00244565e+02
589             	3.00244690e+02
590             	3.00244837e+02
591             	3.00244999e+02
592             	3.00245136e+02
593             	3.00245239e+02
594             	3.00245329e+02
595             	3.00245405e+02
596             	3.00245468e+02
597             	3.00245553e+02
598             	3.00245625e+02
599             	3.00245683e+02
600             	3.00245744e+02
601             	3.00245808e+02
602             	3.00245872e+02
603             	3.00245942e+02
604             	3.00246017e+02
605             	3.00246065e+02
606             	3.00246128e+02
607             	3.00246195e+02
608             	3.00246265e+02
609             	3.00246339e+02
610             	3.00246424e+02
611             	3.00246524e+02
612             	3.00246641e+02
613             	3.00246763e+02
614             	3.00246886e+02
615             	3.00246986e+02
616             	3.00247121e+02
617             	3.00247263e+02
618             	3.00247389e+02
619             	3.00247521e+02
620             	3.00247647e+02
621             	3.00247753e+02
622             	3.00247860e+02
623             	3.00247994e+02
624             	3.00248141e+02
625             	3.00248282e+02
626             	3.00248395e+02
627             	3.00248507e+02
628             	3.00248595e+02
629             	3.00248714e+02
630             	3.00248826e+02
631             	3.00248945e+02
632             	3.00249049e+02
633             	3.00249155e+02
634             	3.00249277e+02
635             	3.00249410e+02
636             	3.00249535e+02
637             	3.00249651e+02
638             	3.00249755e+02
639             	3.00249845e+02
640             	3.00249951e+02
641             	3.00250024e+02
642             	3.00250093e+02
643             	3.00250158e+02
644             	3.00250206e+02
645             	3.00250239e+02
646             	3.00250279e+02
647             	3.00250308e+02
648             	3.00250338e+02
649             	3.00250369e+02
650             	3.00250400e+02
651             	3.00250432e+02
652             	3.00250472e+02
653             	3.00250523e+02
654             	3.00250581e+02
655             	3.00250652e+02
656             	3.00250720e+02
657             	3.00250819e+02
658             	3.00250916e+02
659             	3.00250999e+02
660             	3.00251108e+02
661             	3.00251223e+02
662             	3.00251324e+02
663             	3.00251451e+02
664             	3.00251555e+02
665             	3.00251668e+02
666             	3.00251785e+02
667             	3.00251888e+02
668             	3.00251990e+02
669             	3.00252093e+02
670             	3.00252189e+02
671             	3.00252293e+02
672             	3.00252396e+02
673             	3.00252495e+02
674             	3.00252601e+02
675             	3.00252718e+02
676             	3.00252836e+02
677             	3.00252947e+02
678             	3.00253052e+02
679             	3.00253158e+02
680             	3.00253250e+02
681             	3.00253323e+02
682             	3.00253406e+02
683             	3.00253474e+02
684             	3.00253527e+02
685             	3.00253590e+02
686             	3.00253636e+02
687             	3.00253675e+02
688             	3.00253718e+02
689             	3.00253762e+02
690             	3.00253814e+02
691             	3.00253864e+02
692             	3.00253924e+02
693             	3.00253981e+02
694             	3.00254052e+02
695             	3.00254124e+02
696             	3.00254194e+02
697             	3.00254263e+02
698             	3.00254332e+02
699             	3.00254404e+02
700             	3.00254466e+02
701             	3.00254536e+02
702             	3.00254611e+02
703             	3.00254687e+02
704             	3.00254775e+02
705             	3.00254863e+02
706             	3.00254957e+02
707             	3.00255056e+02
708             	3.00255156e+02
709             	3.00255260e+02
710             	3.00255358e+02
711             	3.00255465e+02
712             	3.00255569e+02
713             	3.00255675e+02
714             	3.00255774e+02
715             	3.00255867e+02
716             	3.00255954e+02
717             	3.00256037e+02
718             	3.00256114e+02
719             	3.00256189e+02
720             	3.00256259e+02
721             	3.00256327e+02
722             	3.00256393e+02
723             	3.00256459e+02
724             	3.00256521e+02
725             	3.00256582e+02
726             	3.00256644e+02
727             	3.00256707e+02
728             	3.00256770e+02
729             	3.00256833e+02
730             	3.00256895e+02
731             	3.00256959e+02
732             	3.00257022e+02
733             	3.00257086e+02
734             	3.00257150e+02
735             	3.00257213e+02
736             	3.00257279e+02
737             	3.00257345e+02
738             	3.00257412e+02
739             	3.00257480e+02
740             	3.00257549e+02
741             	3.00257619e+02
742             	3.00257689e+02
743             	3.00257758e+02
744             	3.00257830e+02
745             	3.00257902e+02
746             	3.00257974e+02
747             	3.00258047e+02
748             	3.00258126e+02
749             	3.00258207e+02
750             	3.00258285e+02
751             	3.00258360e+02
752             	3.00258439e+02
753             	3.00258515e+02
754             	3.00258590e+02
755             	3.00258661e+02
756             	3.00258730e+02
757             	3.00258797e+02
758             	3.00258864e+02
759             	3.00258927e+02
760             	3.00258989e+02
761             	3.00259049e+02
762             	3.00259108e+02
763             	3.00259167e+02
764             	3.00259224e+02
765             	3.00259278e+02
766             	3.00259332e+02
767             	3.00259388e+02
768             	3.00259444e+02
769             	3.00259501e+02
770             	3.00259559e+02
771             	3.00259618e+02
772             	3.00259678e+02
773             	3.00259742e+02
774             	3.00259808e+02
775             	3.00259875e+02
776             	3.00259944e+02
777             	3.00260014e+02
778             	3.00260083e+02
779             	3.00260153e+02
780             	3.00260222e+02
781             	3.00260291e+02
782             	3.00260365e+02
783             	3.00260439e+02
784             	3.00260513e+02
785             	3.00260584e+02
786             	3.00260656e+02
787             	3.00260726e+02
788             	3.00260798e+02
789             	3.00260868e+02
790             	3.00260934e+02
791             	3.00261001e+02
792             	3.00261066e+02
793             	3.00261133e+02
794             	3.00261195e+02
795             	3.00261255e+02
796             	3.00261315e+02
797             	3.00261372e+02
798             	3.00261429e+02
799             	3.00261484e+02
800             	3.00261536e+02
801             	3.00261588e+02
802             	3.00261641e+02
803             	3.00261691e+02
804             	3.00261741e+02
805             	3.00261790e+02
806             	3.00261839e+02
807             	3.00261888e+02
808             	3.00261936e+02
809             	3.00261985e+02
810             	3.00262035e+02
811             	3.00262087e+02
812             	3.00262138e+02
813             	3.00262191e+02
814             	3.00262245e+02
815             	3.00262302e+02
816             	3.00262358e+02
817             	3.00262417e+02
818             	3.00262476e+02
819             	3.00262536e+02
820             	3.00262598e+02
821             	3.00262661e+02
822             	3.00262725e+02
823             	3.00262788e+02
824             	3.00262852e+02
825             	3.00262917e+02
826             	3.00262981e+02
827             	3.00263046e+02
828             	3.00263111e+02
829             	3.00263175e+02
830             	3.00263240e+02
831             	3.00263304e+02
832             	3.00263367e+02
833             	3.00263430e+02
834             	3.00263492e+02
835             	3.00263554e+02
836             	3.00263614e+02
837             	3.00263675e+02
838             	3.00263733e+02
839             	3.00263792e+02
840             	3.00263849e+02
841             	3.00263905e+02
842             	3.00263961e+02
843             	3.00264016e+02
844             	3.00264069e+02
845             	3.00264122e+02
846             	3.00264174e+02
847             	3.00264225e+02
848             	3.00264276e+02
849             	3.00264325e+02
850             	3.00264374e+02
851             	3.00264423e+02
852             	3.00264472e+02
853             	3.00264520e+02
854             	3.00264568e+02
855             	3.00264617e+02
856             	3.00264665e+02
857             	3.00264715e+02
858             	3.00264764e+02
859             	3.00264814e+02
860             	3.00264865e+02
861             	3.00264917e+02
862             	3.00264969e+02
863             	3.00265022e+02
864             	3.00265076e+02
865             	3.00265131e+02
866             	3.00265186e+02
867             	3.00265241e+02
868             	3.00265297e+02
869             	3.00265353e+02
870             	3.00265410e+02
871             	3.00265468e+02
872             	3.00265524e+02
873             	3.00265581e+02
874             	3.00265637e+02
875             	3.00265692e+02
876             	3.00265746e+02
877             	3.00265800e+02
878             	3.00265852e+02
879             	3.00265904e+02
880             	3.00265955e+02
881             	3.00266005e+02
882             	3.00266054e+02
883             	3.00266103e+02
884             	3.00266152e+02
885             	3.00266200e+02
886             	3.00266248e+02
887             	3.00266297e+02
888             	3.00266346e+02
889             	3.00266395e+02
890             	3.00266445e+02
891             	3.00266495e+02
892             	3.00266546e+02
893             	3.00266598e+02
894             	3.00266650e+02
895             	3.00266703e+02
896             	3.00266757e+02
897             	3.00266811e+02
898             	3.00266865e+02
899             	3.00266920e+02
900             	3.00266974e+02
901             	3.00267029e+02
902             	3.00267084e+02
903             	3.00267138e+02
904             	3.00267192e+02
905             	3.00267246e+02
906             	3.00267300e+02
907             	3.00267352e+02
908             	3.00267404e+02
909             	3.00267455e+02
910             	3.00267505e+02
911             	3.00267553e+02
912             	3.00267601e+02
913             	3.00267647e+02
914             	3.00267692e+02
915             	3.00267737e+02
916             	3.00267780e+02
917             	3.00267823e+02
918             	3.00267865e+02
919             	3.00267907e+02
920             	3.00267947e+02
921             	3.00267988e+02
922             	3.00268029e+02
923             	3.00268070e+02
924             	3.00268110e+02
925             	3.00268151e+02
926             	3.00268192e+02
927             	3.00268234e+02
928             	3.00268275e+02
929             	3.00268319e+02
930             	3.00268363e+02
931             	3.00268408e+02
932             	3.00268454e+02
933             	3.00268501e+02