# Region        : cellZone fluid
# Cells         : 9283
# Volume        : 1.72729387e+01
# Time          	volAverage(T)
1               	2.99999802e+02
2               	2.99999775e+02
3               	2.99999927e+02
4               	3.00000180e+02
5               	3.00000370e+02
6               	3.00000598e+02
7               	3.00000858e+02
8               	3.00001320e+02
9               	3.00001633e+02
10              	3.00002010e+02
11              	3.00002454e+02
12              	3.00003014e+02
13              	3.00003660e+02
14              	3.00004470e+02
15              	3.00005194e+02
16              	3.00005957e+02
17              	3.00006657e+02
18              	3.00007366e+02
19              	3.00008160e+02
20              	3.00008949e+02
21              	3.00009883e+02
22              	3.00010712e+02
23              	3.00011531e+02
24              	3.00012645e+02
25              	3.00013358e+02
26              	3.00014115e+02
27              	3.00014807e+02
28              	3.00015471e+02
29              	3.00016120e+02
30              	3.00016885e+02
31              	3.00017740e+02
32              	3.00018657e+02
33              	3.00019675e+02
34              	3.00020710e+02
35              	3.00021499e+02
36              	3.00022538e+02
37              	3.00023579e+02
38              	3.00024461e+02
39              	3.00025318e+02
40              	3.00026566e+02
41              	3.00027821e+02
42              	3.00029043e+02
43              	3.00030431e+02
44              	3.00031943e+02
45              	3.00033337e+02
46              	3.00034267e+02
47              	3.00035536e+02
48              	3.00036576e+02
49              	3.00037642e+02
50              	3.00038689e+02
51              	3.00039684e+02
52              	3.00041146e+02
53              	3.00042593e+02
54              	3.00044191e+02
55              	3.00045597e+02
56              	3.00046963e+02
57              	3.00048488e+02
58              	3.00049625e+02
59              	3.00050703e+02
60              	3.00051824e+02
61              	3.00053040e+02
62              	3.00054831e+02
63              	3.00056575e+02
64              	3.00058149e+02
65              	3.00060352e+02
66              	3.00062301e+02
67              	3.00063524e+02
68              	3.00064567e+02
69              	3.00065664e+02
70              	3.00066662e+02
71              	3.00067581e+02
72              	3.00068454e+02
73              	3.00069331e+02
74              	3.00070045e+02
75              	3.00071467e+02
76              	3.00072700e+02
77              	3.00073912e+02
78              	3.00075622e+02
79              	3.00077377e+02
80              	3.00079031e+02
81              	3.00080295e+02
82              	3.00081004e+02
83              	3.00082184e+02
84              	3.00083563e+02
85              	3.00084884e+02
86              	3.00086026e+02
87              	3.00087365e+02
88              	3.00088571e+02
89              	3.00090062e+02
90              	3.00091373e+02
91              	3.00093054e+02
92              	3.00094240e+02
93              	3.00095727e+02
94              	3.00097151e+02
95              	3.00098069e+02
96              	3.00098739e+02
97              	3.00100365e+02
98              	3.00101854e+02
99              	3.00102739e+02
100             	3.00103536e+02
101             	3.00104660e+02
102             	3.00105757e+02
103             	3.00106592e+02
104             	3.00107593e+02
105             	3.00108443e+02
106             	3.00109768e+02
107             	3.00110741e+02
108             	3.00111833e+02
109             	3.00112661e+02
110             	3.00114246e+02
111             	3.00115532e+02
112             	3.00116679e+02
113             	3.00117721e+02
114             	3.00119507e+02
115             	3.00120775e+02
116             	3.00121661e+02
117             	3.00122527e+02
118             	3.00123561e+02
119             	3.00124284e+02
120             	3.00125636e+02
121             	3.00125775e+02
122             	3.00126388e+02
123             	3.00126819e+02
124             	3.00127483e+02
125             	3.00128471e+02
126             	3.00129451e+02
127             	3.00130313e+02
128             	3.00131300e+02
129             	3.00132218e+02
130             	3.00132966e+02
131             	3.00133335e+02
132             	3.00134268e+02
133             	3.00135298e+02
134             	3.00136036e+02
135             	3.00137077e+02
136             	3.00138225e+02
137             	3.00139311e+02
138             	3.00140924e+02
139             	3.00141301e+02
140             	3.00142119e+02
141             	3.00142341e+02
142             	3.00142260e+02
143             	3.00142251e+02
144             	3.00142447e+02
145             	3.00142777e+02
146             	3.00142889e+02
147             	3.00143077e+02
148             	3.00143543e+02
149             	3.00144247e+02
150             	3.00144913e+02
151             	3.00145316e+02
152             	3.00146044e+02
153             	3.00146840e+02
154             	3.00147173e+02
155             	3.00147323e+02
156             	3.00147335e+02
157             	3.00147525e+02
158             	3.00148224e+02
159             	3.00148806e+02
160             	3.00149558e+02
161             	3.00150440e+02
162             	3.00151559e+02
163             	3.00152055e+02
164             	3.00152805e+02
165             	3.00153719e+02
166             	3.00153574e+02
167             	3.00153311e+02
168             	3.00153246e+02
169             	3.00153344e+02
170             	3.00153568e+02
171             	3.00154127e+02
172             	3.00154852e+02
173             	3.00155437e+02
174             	3.00156255e+02
175             	3.00156711e+02
176             	3.00157312e+02
177             	3.00157840e+02
178             	3.00157933e+02
179             	3.00158389e+02
180             	3.00158965e+02
181             	3.00159201e+02
182             	3.00159239e+02
183             	3.00159622e+02
184             	3.00159986e+02
185             	3.00160104e+02
186             	3.00160455e+02
187             	3.00160471e+02
188             	3.00160921e+02
189             	3.00161106e+02
190             	3.00161308e+02
191             	3.00161305e+02
192             	3.00161261e+02
193             	3.00161121e+02
194             	3.00161170e+02
195             	3.00161236e+02
196             	3.00161405e+02
197             	3.00161805e+02
198             	3.00162118e+02
199             	3.00162159e+02
200             	3.00162259e+02
201             	3.00162478e+02
202             	3.00162660e+02
203             	3.00162883e+02
204             	3.00163053e+02
205             	3.00163162e+02
206             	3.00163337e+02
207             	3.00163501e+02
208             	3.00163661e+02
209             	3.00163805e+02
210             	3.00163855e+02
211             	3.00163901e+02
212             	3.00164066e+02
213             	3.00164237e+02
214             	3.00164451e+02
215             	3.00164673e+02
216             	3.00164996e+02
217             	3.00165389e+02
218             	3.00165911e+02
219             	3.00166153e+02
220             	3.00166404e+02
221             	3.00166505e+02
222             	3.00166590e+02
223             	3.00166709e+02
224             	3.00166898e+02
225             	3.00167239e+02
226             	3.00167636e+02
227             	3.00167974e+02
228             	3.00168391e+02
229             	3.00168841e+02
230             	3.00169219e+02
231             	3.00169768e+02
232             	3.00170140e+02
233             	3.00170489e+02
234             	3.00170783e+02
235             	3.00170943e+02
236             	3.00171052e+02
237             	3.00171335e+02
238             	3.00171640e+02
239             	3.00171844e+02
240             	3.00172120e+02
241             	3.00172519e+02
242             	3.00172937e+02
243             	3.00173388e+02
244             	3.00174000e+02
245             	3.00174159e+02
246             	3.00174331e+02
247             	3.00174465e+02
248             	3.00174609e+02
249             	3.00174830e+02
250             	3.00174915e+02
251             	3.00175108e+02
252             	3.00175314e+02
253             	3.00175516e+02
254             	3.00175676e+02
255             	3.00175809e+02
256             	3.00175971e+02
257             	3.00175957e+02
258             	3.00176251e+02
259             	3.00176564e+02
260             	3.00176878e+02
261             	3.00177223e+02
262             	3.00177526e+02
263             	3.00177841e+02
264             	3.00178178e+02
265             	3.00178497e+02
266             	3.00178669e+02
267             	3.00178890e+02
268             	3.00179153e+02
269             	3.00179494e+02
270             	3.00179781e+02
271             	3.00180120e+02
272             	3.00180527e+02
273             	3.00180883e+02
274             	3.00181579e+02
275             	3.00181736e+02
276             	3.00181956e+02
277             	3.00182179e+02
278             	3.00182408e+02
279             	3.00182617e+02
280             	3.00182886e+02
281             	3.00183087e+02
282             	3.00183298e+02
283             	3.00183586e+02
284             	3.00183797e+02
285             	3.00184027e+02
286             	3.00184375e+02
287             	3.00184760e+02
288             	3.00185089e+02
289             	3.00185432e+02
290             	3.00185549e+02
291             	3.00185781e+02
292             	3.00185920e+02
293             	3.00186085e+02
294             	3.00186270e+02
295             	3.00186580e+02
296             	3.00186858e+02
297             	3.00187176e+02
298             	3.00187482e+02
299             	3.00187794e+02
300             	3.00188110e+02
301             	3.00188708e+02
302             	3.00188903e+02
303             	3.00189107e+02
304             	3.00189362e+02
305             	3.00189575e+02
306             	3.00189770e+02
307             	3.00189967e+02
308             	3.00190153e+02
309             	3.00190405e+02
310             	3.00190651e+02
311             	3.00190877e+02
312             	3.00190827e+02
313             	3.00190980e+02
314             	3.00191334e+02
315             	3.00191627e+02
316             	3.00191856e+02
317             	3.00192073e+02
318             	3.00192321e+02
319             	3.00192598e+02
320             	3.00192885e+02
321             	3.00193168e+02
322             	3.00193467e+02
323             	3.00193751e+02
324             	3.00193964e+02
325             	3.00194227e+02
326             	3.00194684e+02
327             	3.00194686e+02
328             	3.00194745e+02
329             	3.00194869e+02
330             	3.00195083e+02
331             	3.00195330e+02
332             	3.00195543e+02
333             	3.00195823e+02
334             	3.00196185e+02
335             	3.00196461e+02
336             	3.00196300e+02
337             	3.00196843e+02
338             	3.00197120e+02
339             	3.00197325e+02
340             	3.00197645e+02
341             	3.00197928e+02
342             	3.00198504e+02
343             	3.00198686e+02
344             	3.00198901e+02
345             	3.00199311e+02
346             	3.00199687e+02
347             	3.00199948e+02
348             	3.00200149e+02
349             	3.00200247e+02
350             	3.00200418e+02
351             	3.00200519e+02
352             	3.00200697e+02
353             	3.00200873e+02
354             	3.00201069e+02
355             	3.00201318e+02
356             	3.00201524e+02
357             	3.00201711e+02
358             	3.00201842e+02
359             	3.00201997e+02
360             	3.00202055e+02
361             	3.00202051e+02
362             	3.00202068e+02
363             	3.00202099e+02
364             	3.00202144e+02
365             	3.00202201e+02
366             	3.00202271e+02
367             	3.00202328e+02
368             	3.00202488e+02
369             	3.00202615e+02
370             	3.00202722e+02
371             	3.00202862e+02
372             	3.00202998e+02
373             	3.00203164e+02
374             	3.00203254e+02
375             	3.00203496e+02
376             	3.00203695e+02
377             	3.00203785e+02
378             	3.00203895e+02
379             	3.00203998e+02
380             	3.00204096e+02
381             	3.00204170e+02
382             	3.00204257e+02
383             	3.00204373e+02
384             	3.00204515e+02
385             	3.00204602e+02
386             	3.00204725e+02
387             	3.00204871e+02
388             	3.00205024e+02
389             	3.00205188e+02
390             	3.00205360e+02
391             	3.00205589e+02
392             	3.00205840e+02
393             	3.00206178e+02
394             	3.00206487e+02
395             	3.00206802e+02
396             	3.00207094e+02
397             	3.00207346e+02
398             	3.00207532e+02
399             	3.00207967e+02
400             	3.00207913e+02
401             	3.00207915e+02
402             	3.00207984e+02
403             	3.00208092e+02
404             	3.00208231e+02
405             	3.00208397e+02
406             	3.00208546e+02
407             	3.00208670e+02
408             	3.00208823e+02
409             	3.00208972e+02
410             	3.00209050e+02
411             	3.00209127e+02
412             	3.00209233e+02
413             	3.00209126e+02
414             	3.00209300e+02
415             	3.00209503e+02
416             	3.00209656e+02
417             	3.00209823e+02
418             	3.00209972e+02
419             	3.00210099e+02
420             	3.00210176e+02
421             	3.00210285e+02
422             	3.00210319e+02
423             	3.00210400e+02
424             	3.00210454e+02
425             	3.00210491e+02
426             	3.00210517e+02
427             	3.00210536e+02
428             	3.00210567e+02
429             	3.00210804e+02
430             	3.00210670e+02
431             	3.00210594e+02
432             	3.00210543e+02
433             	3.00210491e+02
434             	3.00210443e+02
435             	3.00210433e+02
436             	3.00210433e+02
437             	3.00210454e+02
438             	3.00210498e+02
439             	3.00210567e+02
440             	3.00210667e+02
441             	3.00210822e+02
442             	3.00210912e+02
443             	3.00211151e+02
444             	3.00211351e+02
445             	3.00211517e+02
446             	3.00211642e+02
447             	3.00211886e+02
448             	3.00212103e+02
449             	3.00212304e+02
450             	3.00212475e+02
451             	3.00212676e+02
452             	3.00212887e+02
453             	3.00213119e+02
454             	3.00213301e+02
455             	3.00213449e+02
456             	3.00213622e+02
457             	3.00213773e+02
458             	3.00213961e+02
459             	3.00214199e+02
460             	3.00214292e+02
461             	3.00214701e+02
462             	3.00214689e+02
463             	3.00214725e+02
464             	3.00214737e+02
465             	3.00214775e+02
466             	3.00214815e+02
467             	3.00214866e+02
468             	3.00214924e+02
469             	3.00214999e+02
470             	3.00215058e+02
471             	3.00215128e+02
472             	3.00215254e+02
473             	3.00215316e+02
474             	3.00215330e+02
475             	3.00215371e+02
476             	3.00215323e+02
477             	3.00215123e+02
478             	3.00215166e+02
479             	3.00215212e+02
480             	3.00215225e+02
481             	3.00215262e+02
482             	3.00215330e+02
483             	3.00215443e+02
484             	3.00215562e+02
485             	3.00215671e+02
486             	3.00215708e+02
487             	3.00215771e+02
488             	3.00215794e+02
489             	3.00215802e+02
490             	3.00215846e+02
491             	3.00215830e+02
492             	3.00215820e+02
493             	3.00215834e+02
494             	3.00215809e+02
495             	3.00215787e+02
496             	3.00215751e+02
497             	3.00215725e+02
498             	3.00215876e+02
499             	3.00215843e+02
500             	3.00215898e+02
501             	3.00216003e+02
502             	3.00216147e+02
503             	3.00216339e+02
504             	3.00216587e+02
505             	3.00216848e+02
506             	3.00217070e+02
507             	3.00217138e+02
508             	3.00217408e+02
509             	3.00217567e+02
510             	3.00217716e+02
511             	3.00217834e+02
512             	3.00217967e+02
513             	3.00218068e+02
514             	3.00218054e+02
515             	3.00218219e+02
516             	3.00218168e+02
517             	3.00218161e+02
518             	3.00218161e+02
519             	3.00218203e+02
520             	3.00218228e+02
521             	3.00218239e+02
522             	3.00218257e+02
523             	3.00218248e+02
524             	3.00218248e+02
525             	3.00218204e+02
526             	3.00218181e+02
527             	3.00218197e+02
528             	3.00218238e+02
529             	3.00218261e+02
530             	3.00218267e+02
531             	3.00218272e+02
532             	3.00218245e+02
533             	3.00218210e+02
534             	3.00218182e+02
535             	3.00218157e+02
536             	3.00218151e+02
537             	3.00218152e+02
538             	3.00218156e+02
539             	3.00218173e+02
540             	3.00218189e+02
541             	3.00218088e+02
542             	3.00218121e+02
543             	3.00218128e+02
544             	3.00218103e+02
545             	3.00218011e+02
546             	3.00218005e+02
547             	3.00217996e+02
548             	3.00217981e+02
549             	3.00217981e+02
550             	3.00217981e+02
551             	3.00217994e+02
552             	3.00218029e+02
553             	3.00218098e+02
554             	3.00218216e+02
555             	3.00218299e+02
556             	3.00218443e+02
557             	3.00218609e+02
558             	3.00218739e+02
559             	3.00218908e+02
560             	3.00219058e+02
561             	3.00219127e+02
562             	3.00219355e+02
563             	3.00219496e+02
564             	3.00219635e+02
565             	3.00219782e+02
566             	3.00219923e+02
567             	3.00220026e+02
568             	3.00220272e+02
569             	3.00220255e+02
570             	3.00220237e+02
571             	3.00220257e+02
572             	3.00220296e+02
573             	3.00220349e+02
574             	3.00220437e+02
575             	3.00220555e+02
576             	3.00220616e+02
577             	3.00220639e+02
578             	3.00220663e+02
579             	3.00220675e+02
580             	3.00220655e+02
581             	3.00220618e+02
582             	3.00220586e+02
583             	3.00220550e+02
584             	3.00220443e+02
585             	3.00220365e+02
586             	3.00220315e+02
587             	3.00220268e+02
588             	3.00220219e+02
589             	3.00220165e+02
590             	3.00220122e+02
591             	3.00220099e+02
592             	3.00220031e+02
593             	3.00219951e+02
594             	3.00219899e+02
595             	3.00219837e+02
596             	3.00219840e+02
597             	3.00219783e+02
598             	3.00219746e+02
599             	3.00219794e+02
600             	3.00219627e+02
601             	3.00219671e+02
602             	3.00219688e+02
603             	3.00219671e+02
604             	3.00219648e+02
605             	3.00219612e+02
606             	3.00219603e+02
607             	3.00219587e+02
608             	3.00219566e+02
609             	3.00219585e+02
610             	3.00219634e+02
611             	3.00219694e+02
612             	3.00219770e+02
613             	3.00219862e+02
614             	3.00219973e+02
615             	3.00220175e+02
616             	3.00220363e+02
617             	3.00220761e+02
618             	3.00220899e+02
619             	3.00221087e+02
620             	3.00221262e+02
621             	3.00221311e+02
622             	3.00221315e+02
623             	3.00221327e+02
624             	3.00221331e+02
625             	3.00221340e+02
626             	3.00221355e+02
627             	3.00221392e+02
628             	3.00221481e+02
629             	3.00221512e+02
630             	3.00221536e+02
631             	3.00221491e+02
632             	3.00221466e+02
633             	3.00221399e+02
634             	3.00221303e+02
635             	3.00221140e+02
636             	3.00221063e+02
637             	3.00221027e+02
638             	3.00221032e+02
639             	3.00221073e+02
640             	3.00221122e+02
641             	3.00221197e+02
642             	3.00221272e+02
643             	3.00221313e+02
644             	3.00221289e+02
645             	3.00221272e+02
646             	3.00221241e+02
647             	3.00221240e+02
648             	3.00221229e+02
649             	3.00221204e+02
650             	3.00221148e+02
651             	3.00221029e+02
652             	3.00221008e+02
653             	3.00220957e+02
654             	3.00220764e+02
655             	3.00220732e+02
656             	3.00220672e+02
657             	3.00220580e+02
658             	3.00220485e+02
659             	3.00220393e+02
660             	3.00220315e+02
661             	3.00220262e+02
662             	3.00220244e+02
663             	3.00220241e+02
664             	3.00220265e+02
665             	3.00220331e+02
666             	3.00220425e+02
667             	3.00220528e+02
668             	3.00220639e+02
669             	3.00220806e+02
670             	3.00220994e+02
671             	3.00221197e+02
672             	3.00221390e+02
673             	3.00221569e+02
674             	3.00221789e+02
675             	3.00221965e+02
676             	3.00222150e+02
677             	3.00222290e+02
678             	3.00222386e+02
679             	3.00222498e+02
680             	3.00222561e+02
681             	3.00222857e+02
682             	3.00222718e+02
683             	3.00222661e+02
684             	3.00222688e+02
685             	3.00222707e+02
686             	3.00222742e+02
687             	3.00222776e+02
688             	3.00222802e+02
689             	3.00222794e+02
690             	3.00222791e+02
691             	3.00222794e+02
692             	3.00222732e+02
693             	3.00222660e+02
694             	3.00222570e+02
695             	3.00222473e+02
696             	3.00222375e+02
697             	3.00222074e+02
698             	3.00222105e+02
699             	3.00222135e+02
700             	3.00222147e+02
701             	3.00222186e+02
702             	3.00222229e+02
703             	3.00222269e+02
704             	3.00222343e+02
705             	3.00222387e+02
706             	3.00222354e+02
707             	3.00222304e+02
708             	3.00222227e+02
709             	3.00222121e+02
710             	3.00222030e+02
711             	3.00221955e+02
712             	3.00221898e+02
713             	3.00221923e+02
714             	3.00221870e+02
715             	3.00221962e+02
716             	3.00221744e+02
717             	3.00221662e+02
718             	3.00221687e+02
719             	3.00221703e+02
720             	3.00221741e+02
721             	3.00221820e+02
722             	3.00221907e+02
723             	3.00222109e+02
724             	3.00222186e+02
725             	3.00222307e+02
726             	3.00222346e+02
727             	3.00222557e+02
728             	3.00222748e+02
729             	3.00222928e+02
730             	3.00223084e+02
731             	3.00223133e+02
732             	3.00223191e+02
733             	3.00223191e+02
734             	3.00223236e+02
735             	3.00223411e+02
736             	3.00223537e+02
737             	3.00223644e+02
738             	3.00223765e+02
739             	3.00223887e+02
740             	3.00223899e+02
741             	3.00223854e+02
742             	3.00223873e+02
743             	3.00223806e+02
744             	3.00223683e+02
745             	3.00223600e+02
746             	3.00223537e+02
747             	3.00223588e+02
748             	3.00223403e+02
749             	3.00223373e+02
750             	3.00223189e+02
751             	3.00223115e+02
752             	3.00223048e+02
753             	3.00222995e+02
754             	3.00222965e+02
755             	3.00222943e+02
756             	3.00222950e+02
757             	3.00222955e+02
758             	3.00222950e+02
759             	3.00222903e+02
760             	3.00222801e+02
761             	3.00222730e+02
762             	3.00222655e+02
763             	3.00222603e+02
764             	3.00222538e+02
765             	3.00222533e+02
766             	3.00222480e+02
767             	3.00222407e+02
768             	3.00222320e+02
769             	3.00222357e+02
770             	3.00222371e+02
771             	3.00222381e+02
772             	3.00222381e+02
773             	3.00222389e+02
774             	3.00222386e+02
775             	3.00222430e+02
776             	3.00222502e+02
777             	3.00222583e+02
778             	3.00222680e+02
779             	3.00222809e+02
780             	3.00222971e+02
781             	3.00223226e+02
782             	3.00223474e+02
783             	3.00223673e+02
784             	3.00223859e+02
785             	3.00224019e+02
786             	3.00224086e+02
787             	3.00224119e+02
788             	3.00224469e+02
789             	3.00224313e+02
790             	3.00224251e+02
791             	3.00224225e+02
792             	3.00224247e+02
793             	3.00224260e+02
794             	3.00224359e+02
795             	3.00224366e+02
796             	3.00224356e+02
797             	3.00224343e+02
798             	3.00224282e+02
799             	3.00224141e+02
800             	3.00224026e+02
801             	3.00223939e+02
802             	3.00223744e+02
803             	3.00223641e+02
804             	3.00223534e+02
805             	3.00223454e+02
806             	3.00223397e+02
807             	3.00223155e+02
808             	3.00223207e+02
809             	3.00223339e+02
810             	3.00223412e+02
811             	3.00223370e+02
812             	3.00223509e+02
813             	3.00223532e+02
814             	3.00223498e+02
815             	3.00223491e+02
816             	3.00223436e+02
817             	3.00223300e+02
818             	3.00223192e+02
819             	3.00223168e+02
820             	3.00223394e+02
821             	3.00223074e+02
822             	3.00222920e+02
823             	3.00222873e+02
824             	3.00222884e+02
825             	3.00222903e+02
826             	3.00222934e+02
827             	3.00222957e+02
828             	3.00222816e+02
829             	3.00222945e+02
830             	3.00222838e+02
831             	3.00222768e+02
832             	3.00222827e+02
833             	3.00223002e+02
834             	3.00223148e+02
835             	3.00223233e+02
836             	3.00223311e+02
837             	3.00223440e+02
838             	3.00223618e+02
839             	3.00223810e+02
840             	3.00224017e+02
841             	3.00224227e+02
842             	3.00224393e+02
843             	3.00224459e+02
844             	3.00224744e+02
845             	3.00224807e+02
846             	3.00224852e+02
847             	3.00224944e+02
848             	3.00224924e+02
849             	3.00224971e+02
850             	3.00224910e+02
851             	3.00224929e+02
852             	3.00224752e+02
853             	3.00224908e+02
854             	3.00224682e+02
855             	3.00224578e+02
856             	3.00224789e+02
857             	3.00224663e+02
858             	3.00224615e+02
859             	3.00224611e+02
860             	3.00224547e+02
861             	3.00224337e+02
862             	3.00224266e+02
863             	3.00224143e+02
864             	3.00223948e+02
865             	3.00223849e+02
866             	3.00223926e+02
867             	3.00224061e+02
868             	3.00224165e+02
869             	3.00224222e+02
870             	3.00224286e+02
871             	3.00224331e+02
872             	3.00224356e+02
873             	3.00224317e+02
874             	3.00224277e+02
875             	3.00224226e+02
876             	3.00224162e+02
877             	3.00224049e+02
878             	3.00223958e+02
879             	3.00223893e+02
880             	3.00223811e+02
881             	3.00223758e+02
882             	3.00223933e+02
883             	3.00223797e+02
884             	3.00223721e+02
885             	3.00223684e+02
886             	3.00223666e+02
887             	3.00223681e+02
888             	3.00223711e+02
889             	3.00223767e+02
890             	3.00223860e+02
891             	3.00223982e+02
892             	3.00224116e+02
893             	3.00224383e+02
894             	3.00224444e+02
895             	3.00224314e+02
896             	3.00224572e+02
897             	3.00224737e+02
898             	3.00224852e+02
899             	3.00224916e+02
900             	3.00224965e+02
901             	3.00224949e+02
902             	3.00224903e+02
903             	3.00224905e+02
904             	3.00225028e+02
905             	3.00224976e+02
906             	3.00225025e+02
907             	3.00225152e+02
908             	3.00225183e+02
909             	3.00225267e+02
910             	3.00225104e+02
911             	3.00224951e+02
912             	3.00224820e+02
913             	3.00224698e+02
914             	3.00224574e+02
915             	3.00224427e+02
916             	3.00224300e+02
917             	3.00224194e+02
918             	3.00224166e+02
919             	3.00224017e+02
920             	3.00223924e+02
921             	3.00223813e+02
922             	3.00223783e+02
923             	3.00223743e+02
924             	3.00223611e+02
925             	3.00223466e+02
926             	3.00223371e+02
927             	3.00223282e+02
928             	3.00223237e+02
929             	3.00223215e+02
930             	3.00223215e+02
931             	3.00223225e+02
932             	3.00223319e+02
933             	3.00223382e+02