# Region        : cellZone component_2
# Cells         : 108
# Volume        : 1.90304511e-01
# Time          	volAverage(T)
1               	3.00450956e+02
2               	3.00897520e+02
3               	3.01309669e+02
4               	3.01702061e+02
5               	3.02084815e+02
6               	3.02461114e+02
7               	3.02831627e+02
8               	3.03198124e+02
9               	3.03561804e+02
10              	3.03923582e+02
11              	3.04283261e+02
12              	3.04639149e+02
13              	3.04990791e+02
14              	3.05338606e+02
15              	3.05683628e+02
16              	3.06027124e+02
17              	3.06369217e+02
18              	3.06707198e+02
19              	3.07040243e+02
20              	3.07365359e+02
21              	3.07681754e+02
22              	3.07989834e+02
23              	3.08291561e+02
24              	3.08587073e+02
25              	3.08877974e+02
26              	3.09163753e+02
27              	3.09446229e+02
28              	3.09724008e+02
29              	3.09996951e+02
30              	3.10263443e+02
31              	3.10524991e+02
32              	3.10780475e+02
33              	3.11031625e+02
34              	3.11280369e+02
35              	3.11526422e+02
36              	3.11769926e+02
37              	3.12010914e+02
38              	3.12249189e+02
39              	3.12485038e+02
40              	3.12717805e+02
41              	3.12946387e+02
42              	3.13170786e+02
43              	3.13391693e+02
44              	3.13608934e+02
45              	3.13821585e+02
46              	3.14030709e+02
47              	3.14238080e+02
48              	3.14442106e+02
49              	3.14641989e+02
50              	3.14838467e+02
51              	3.15030621e+02
52              	3.15219420e+02
53              	3.15406722e+02
54              	3.15592715e+02
55              	3.15777138e+02
56              	3.15960838e+02
57              	3.16143356e+02
58              	3.16323506e+02
59              	3.16501926e+02
60              	3.16676924e+02
61              	3.16849507e+02
62              	3.17015692e+02
63              	3.17178226e+02
64              	3.17338035e+02
65              	3.17490971e+02
66              	3.17637770e+02
67              	3.17779955e+02
68              	3.17916489e+02
69              	3.18051754e+02
70              	3.18183580e+02
71              	3.18314282e+02
72              	3.18443705e+02
73              	3.18571420e+02
74              	3.18696654e+02
75              	3.18819130e+02
76              	3.18937597e+02
77              	3.19053559e+02
78              	3.19167832e+02
79              	3.19279208e+02
80              	3.19387750e+02
81              	3.19493985e+02
82              	3.19598999e+02
83              	3.19703275e+02
84              	3.19806222e+02
85              	3.19906502e+02
86              	3.20005126e+02
87              	3.20100954e+02
88              	3.20194697e+02
89              	3.20286824e+02
90              	3.20380393e+02
91              	3.20466175e+02
92              	3.20552443e+02
93              	3.20640104e+02
94              	3.20728635e+02
95              	3.20810745e+02
96              	3.20894441e+02
97              	3.20977329e+02
98              	3.21057720e+02
99              	3.21132627e+02
100             	3.21202834e+02
101             	3.21271675e+02
102             	3.21338784e+02
103             	3.21402926e+02
104             	3.21464827e+02
105             	3.21525441e+02
106             	3.21584886e+02
107             	3.21638645e+02
108             	3.21695568e+02
109             	3.21752651e+02
110             	3.21809997e+02
111             	3.21862566e+02
112             	3.21914056e+02
113             	3.21965178e+02
114             	3.22015809e+02
115             	3.22066439e+02
116             	3.22115849e+02
117             	3.22162371e+02
118             	3.22207032e+02
119             	3.22252609e+02
120             	3.22296534e+02
121             	3.22338548e+02
122             	3.22378846e+02
123             	3.22418094e+02
124             	3.22456573e+02
125             	3.22494901e+02
126             	3.22533322e+02
127             	3.22565147e+02
128             	3.22601084e+02
129             	3.22637305e+02
130             	3.22672955e+02
131             	3.22707025e+02
132             	3.22737830e+02
133             	3.22769200e+02
134             	3.22799263e+02
135             	3.22828213e+02
136             	3.22856137e+02
137             	3.22882565e+02
138             	3.22908501e+02
139             	3.22933728e+02
140             	3.22958719e+02
141             	3.22983476e+02
142             	3.23007893e+02
143             	3.23031101e+02
144             	3.23053076e+02
145             	3.23075350e+02
146             	3.23097165e+02
147             	3.23114050e+02
148             	3.23133463e+02
149             	3.23153723e+02
150             	3.23174072e+02
151             	3.23195674e+02
152             	3.23213146e+02
153             	3.23231259e+02
154             	3.23247043e+02
155             	3.23263286e+02
156             	3.23280146e+02
157             	3.23296922e+02
158             	3.23313757e+02
159             	3.23329437e+02
160             	3.23345676e+02
161             	3.23362524e+02
162             	3.23378458e+02
163             	3.23394254e+02
164             	3.23409767e+02
165             	3.23425134e+02
166             	3.23439322e+02
167             	3.23453239e+02
168             	3.23465666e+02
169             	3.23474232e+02
170             	3.23484733e+02
171             	3.23496483e+02
172             	3.23507291e+02
173             	3.23517728e+02
174             	3.23528229e+02
175             	3.23539181e+02
176             	3.23550158e+02
177             	3.23560456e+02
178             	3.23570115e+02
179             	3.23581020e+02
180             	3.23590312e+02
181             	3.23599806e+02
182             	3.23611377e+02
183             	3.23622626e+02
184             	3.23633787e+02
185             	3.23644849e+02
186             	3.23655294e+02
187             	3.23664836e+02
188             	3.23673091e+02
189             	3.23680031e+02
190             	3.23687649e+02
191             	3.23695647e+02
192             	3.23703350e+02
193             	3.23710663e+02
194             	3.23717854e+02
195             	3.23724818e+02
196             	3.23731846e+02
197             	3.23738723e+02
198             	3.23744949e+02
199             	3.23751065e+02
200             	3.23757488e+02
201             	3.23764900e+02
202             	3.23773855e+02
203             	3.23780607e+02
204             	3.23787443e+02
205             	3.23794705e+02
206             	3.23802210e+02
207             	3.23808653e+02
208             	3.23811871e+02
209             	3.23815224e+02
210             	3.23819469e+02
211             	3.23823781e+02
212             	3.23828680e+02
213             	3.23834358e+02
214             	3.23840766e+02
215             	3.23846369e+02
216             	3.23851211e+02
217             	3.23856259e+02
218             	3.23861827e+02
219             	3.23865446e+02
220             	3.23868093e+02
221             	3.23872298e+02
222             	3.23877253e+02
223             	3.23882263e+02
224             	3.23887113e+02
225             	3.23891690e+02
226             	3.23896449e+02
227             	3.23902222e+02
228             	3.23908368e+02
229             	3.23912028e+02
230             	3.23915949e+02
231             	3.23920364e+02
232             	3.23923175e+02
233             	3.23925089e+02
234             	3.23928022e+02
235             	3.23931274e+02
236             	3.23934983e+02
237             	3.23938934e+02
238             	3.23943874e+02
239             	3.23947534e+02
240             	3.23953598e+02
241             	3.23956642e+02
242             	3.23959581e+02
243             	3.23962921e+02
244             	3.23964449e+02
245             	3.23966328e+02
246             	3.23968600e+02
247             	3.23971306e+02
248             	3.23974238e+02
249             	3.23977838e+02
250             	3.23980883e+02
251             	3.23983777e+02
252             	3.23986680e+02
253             	3.23989987e+02
254             	3.23995102e+02
255             	3.23997312e+02
256             	3.23999343e+02
257             	3.24001583e+02
258             	3.24004380e+02
259             	3.24007491e+02
260             	3.24010486e+02
261             	3.24010612e+02
262             	3.24012647e+02
263             	3.24013607e+02
264             	3.24015339e+02
265             	3.24017659e+02
266             	3.24020048e+02
267             	3.24022682e+02
268             	3.24026856e+02
269             	3.24028426e+02
270             	3.24030719e+02
271             	3.24033780e+02
272             	3.24036558e+02
273             	3.24039650e+02
274             	3.24043335e+02
275             	3.24044302e+02
276             	3.24046643e+02
277             	3.24049048e+02
278             	3.24051938e+02
279             	3.24054450e+02
280             	3.24056494e+02
281             	3.24058219e+02
282             	3.24059749e+02
283             	3.24061346e+02
284             	3.24062655e+02
285             	3.24064043e+02
286             	3.24066168e+02
287             	3.24067488e+02
288             	3.24069433e+02
289             	3.24071029e+02
290             	3.24072934e+02
291             	3.24074912e+02
292             	3.24076642e+02
293             	3.24077206e+02
294             	3.24077960e+02
295             	3.24079509e+02
296             	3.24081131e+02
297             	3.24082502e+02
298             	3.24083811e+02
299             	3.24085515e+02
300             	3.24087502e+02
301             	3.24089106e+02
302             	3.24090814e+02
303             	3.24092975e+02
304             	3.24095332e+02
305             	3.24097332e+02
306             	3.24098972e+02
307             	3.24100463e+02
308             	3.24102227e+02
309             	3.24104169e+02
310             	3.24105864e+02
311             	3.24107174e+02
312             	3.24108490e+02
313             	3.24109785e+02
314             	3.24111075e+02
315             	3.24112847e+02
316             	3.24114102e+02
317             	3.24115357e+02
318             	3.24117060e+02
319             	3.24118911e+02
320             	3.24120391e+02
321             	3.24122056e+02
322             	3.24123001e+02
323             	3.24124311e+02
324             	3.24125752e+02
325             	3.24126875e+02
326             	3.24127969e+02
327             	3.24129006e+02
328             	3.24129794e+02
329             	3.24130501e+02
330             	3.24131454e+02
331             	3.24132440e+02
332             	3.24133295e+02
333             	3.24134068e+02
334             	3.24135262e+02
335             	3.24136067e+02
336             	3.24136704e+02
337             	3.24137775e+02
338             	3.24138918e+02
339             	3.24139997e+02
340             	3.24141224e+02
341             	3.24142115e+02
342             	3.24142734e+02
343             	3.24143012e+02
344             	3.24143685e+02
345             	3.24144448e+02
346             	3.24145165e+02
347             	3.24145889e+02
348             	3.24146988e+02
349             	3.24148218e+02
350             	3.24149061e+02
351             	3.24149920e+02
352             	3.24151025e+02
353             	3.24152176e+02
354             	3.24153289e+02
355             	3.24154331e+02
356             	3.24155259e+02
357             	3.24156222e+02
358             	3.24157121e+02
359             	3.24157814e+02
360             	3.24158490e+02
361             	3.24159113e+02
362             	3.24159707e+02
363             	3.24160283e+02
364             	3.24160789e+02
365             	3.24161342e+02
366             	3.24162122e+02
367             	3.24162851e+02
368             	3.24163322e+02
369             	3.24163884e+02
370             	3.24164547e+02
371             	3.24165190e+02
372             	3.24165428e+02
373             	3.24165739e+02
374             	3.24166020e+02
375             	3.24166494e+02
376             	3.24167103e+02
377             	3.24167618e+02
378             	3.24168190e+02
379             	3.24168913e+02
380             	3.24169803e+02
381             	3.24170186e+02
382             	3.24170612e+02
383             	3.24171173e+02
384             	3.24171853e+02
385             	3.24172226e+02
386             	3.24172553e+02
387             	3.24173131e+02
388             	3.24173783e+02
389             	3.24174323e+02
390             	3.24174739e+02
391             	3.24175208e+02
392             	3.24175695e+02
393             	3.24176088e+02
394             	3.24176450e+02
395             	3.24176795e+02
396             	3.24177142e+02
397             	3.24177545e+02
398             	3.24177974e+02
399             	3.24178406e+02
400             	3.24178771e+02
401             	3.24178898e+02
402             	3.24179364e+02
403             	3.24179860e+02
404             	3.24180129e+02
405             	3.24180429e+02
406             	3.24180712e+02
407             	3.24181040e+02
408             	3.24181617e+02
409             	3.24181769e+02
410             	3.24181991e+02
411             	3.24182337e+02
412             	3.24182662e+02
413             	3.24183006e+02
414             	3.24183412e+02
415             	3.24183738e+02
416             	3.24184033e+02
417             	3.24184273e+02
418             	3.24184545e+02
419             	3.24184786e+02
420             	3.24184997e+02
421             	3.24185175e+02
422             	3.24185323e+02
423             	3.24185487e+02
424             	3.24185842e+02
425             	3.24186233e+02
426             	3.24186339e+02
427             	3.24186439e+02
428             	3.24186574e+02
429             	3.24186789e+02
430             	3.24186787e+02
431             	3.24187052e+02
432             	3.24187288e+02
433             	3.24187523e+02
434             	3.24187671e+02
435             	3.24187797e+02
436             	3.24187898e+02
437             	3.24188074e+02
438             	3.24188425e+02
439             	3.24188512e+02
440             	3.24188592e+02
441             	3.24188744e+02
442             	3.24188909e+02
443             	3.24189075e+02
444             	3.24189265e+02
445             	3.24189457e+02
446             	3.24189652e+02
447             	3.24189784e+02
448             	3.24189888e+02
449             	3.24189978e+02
450             	3.24190080e+02
451             	3.24190171e+02
452             	3.24190232e+02
453             	3.24190267e+02
454             	3.24190296e+02
455             	3.24190335e+02
456             	3.24190449e+02
457             	3.24190460e+02
458             	3.24190489e+02
459             	3.24190557e+02
460             	3.24190654e+02
461             	3.24190767e+02
462             	3.24190872e+02
463             	3.24190948e+02
464             	3.24191010e+02
465             	3.24191020e+02
466             	3.24191047e+02
467             	3.24191032e+02
468             	3.24191108e+02
469             	3.24191200e+02
470             	3.24191278e+02
471             	3.24191333e+02
472             	3.24191406e+02
473             	3.24191622e+02
474             	3.24191769e+02
475             	3.24191769e+02
476             	3.24191765e+02
477             	3.24191807e+02
478             	3.24191876e+02
479             	3.24191898e+02
480             	3.24191877e+02
481             	3.24191758e+02
482             	3.24191841e+02
483             	3.24191940e+02
484             	3.24191946e+02
485             	3.24191953e+02
486             	3.24191987e+02
487             	3.24192114e+02
488             	3.24192151e+02
489             	3.24192066e+02
490             	3.24192016e+02
491             	3.24192024e+02
492             	3.24192042e+02
493             	3.24191959e+02
494             	3.24191895e+02
495             	3.24191990e+02
496             	3.24192089e+02
497             	3.24192174e+02
498             	3.24192227e+02
499             	3.24192210e+02
500             	3.24192275e+02
501             	3.24192218e+02
502             	3.24192154e+02
503             	3.24192132e+02
504             	3.24192130e+02
505             	3.24192170e+02
506             	3.24192142e+02
507             	3.24192029e+02
508             	3.24192049e+02
509             	3.24192077e+02
510             	3.24192055e+02
511             	3.24192043e+02
512             	3.24192085e+02
513             	3.24192108e+02
514             	3.24192090e+02
515             	3.24192054e+02
516             	3.24192026e+02
517             	3.24192010e+02
518             	3.24191993e+02
519             	3.24191976e+02
520             	3.24191966e+02
521             	3.24191980e+02
522             	3.24191951e+02
523             	3.24191992e+02
524             	3.24192049e+02
525             	3.24192094e+02
526             	3.24192110e+02
527             	3.24192109e+02
528             	3.24192107e+02
529             	3.24192103e+02
530             	3.24192117e+02
531             	3.24192200e+02
532             	3.24192226e+02
533             	3.24192220e+02
534             	3.24192235e+02
535             	3.24192271e+02
536             	3.24192323e+02
537             	3.24192319e+02
538             	3.24192270e+02
539             	3.24192257e+02
540             	3.24192285e+02
541             	3.24192290e+02
542             	3.24192289e+02
543             	3.24192312e+02
544             	3.24192321e+02
545             	3.24192309e+02
546             	3.24192288e+02
547             	3.24192288e+02
548             	3.24192294e+02
549             	3.24192284e+02
550             	3.24192243e+02
551             	3.24192207e+02
552             	3.24192232e+02
553             	3.24192251e+02
554             	3.24192255e+02
555             	3.24192250e+02
556             	3.24192267e+02
557             	3.24192297e+02
558             	3.24192293e+02
559             	3.24192255e+02
560             	3.24192234e+02
561             	3.24192236e+02
562             	3.24192185e+02
563             	3.24192154e+02
564             	3.24192170e+02
565             	3.24192188e+02
566             	3.24192180e+02
567             	3.24192185e+02
568             	3.24192193e+02
569             	3.24192156e+02
570             	3.24192098e+02
571             	3.24192061e+02
572             	3.24192040e+02
573             	3.24192022e+02
574             	3.24192008e+02
575             	3.24191995e+02
576             	3.24191989e+02
577             	3.24191987e+02
578             	3.24191974e+02
579             	3.24191958e+02
580             	3.24191938e+02
581             	3.24191938e+02
582             	3.24191923e+02
583             	3.24191940e+02
584             	3.24191939e+02
585             	3.24191907e+02
586             	3.24191881e+02
587             	3.24191866e+02
588             	3.24191854e+02
589             	3.24191834e+02
590             	3.24191811e+02
591             	3.24191801e+02
592             	3.24191778e+02
593             	3.24191775e+02
594             	3.24191750e+02
595             	3.24191738e+02
596             	3.24191729e+02
597             	3.24191710e+02
598             	3.24191684e+02
599             	3.24191683e+02
600             	3.24191661e+02
601             	3.24191662e+02
602             	3.24191643e+02
603             	3.24191632e+02
604             	3.24191624e+02
605             	3.24191609e+02
606             	3.24191593e+02
607             	3.24191565e+02
608             	3.24191527e+02
609             	3.24191525e+02
610             	3.24191520e+02
611             	3.24191502e+02
612             	3.24191474e+02
613             	3.24191442e+02
614             	3.24191408e+02
615             	3.24191376e+02
616             	3.24191347e+02
617             	3.24191322e+02
618             	3.24191308e+02
619             	3.24191316e+02
620             	3.24191294e+02
621             	3.24191268e+02
622             	3.24191248e+02
623             	3.24191231e+02
624             	3.24191216e+02
625             	3.24191197e+02
626             	3.24191175e+02
627             	3.24191154e+02
628             	3.24191130e+02
629             	3.24191086e+02
630             	3.24191070e+02
631             	3.24191057e+02
632             	3.24191035e+02
633             	3.24191009e+02
634             	3.24190989e+02
635             	3.24190972e+02
636             	3.24190952e+02
637             	3.24190936e+02
638             	3.24190927e+02
639             	3.24190916e+02
640             	3.24190909e+02
641             	3.24190916e+02
642             	3.24190931e+02
643             	3.24190925e+02
644             	3.24190914e+02
645             	3.24190908e+02
646             	3.24190908e+02
647             	3.24190890e+02
648             	3.24190866e+02
649             	3.24190859e+02
650             	3.24190853e+02
651             	3.24190841e+02
652             	3.24190822e+02
653             	3.24190824e+02
654             	3.24190834e+02
655             	3.24190822e+02
656             	3.24190818e+02
657             	3.24190810e+02
658             	3.24190798e+02
659             	3.24190796e+02
660             	3.24190788e+02
661             	3.24190765e+02
662             	3.24190756e+02
663             	3.24190741e+02
664             	3.24190734e+02
665             	3.24190727e+02
666             	3.24190717e+02
667             	3.24190710e+02
668             	3.24190702e+02
669             	3.24190690e+02
670             	3.24190676e+02
671             	3.24190666e+02
672             	3.24190652e+02
673             	3.24190644e+02
674             	3.24190635e+02
675             	3.24190627e+02
676             	3.24190619e+02
677             	3.24190611e+02
678             	3.24190607e+02
679             	3.24190601e+02
680             	3.24190588e+02
681             	3.24190577e+02
682             	3.24190571e+02
683             	3.24190563e+02
684             	3.24190551e+02
685             	3.24190535e+02
686             	3.24190522e+02
687             	3.24190521e+02
688             	3.24190517e+02
689             	3.24190512e+02
690             	3.24190501e+02
691             	3.24190497e+02
692             	3.24190489e+02
693             	3.24190480e+02
694             	3.24190468e+02
695             	3.24190453e+02
696             	3.24190438e+02
697             	3.24190435e+02
698             	3.24190429e+02
699             	3.24190421e+02
700             	3.24190412e+02
701             	3.24190403e+02
702             	3.24190397e+02
703             	3.24190390e+02
704             	3.24190382e+02
705             	3.24190375e+02
706             	3.24190364e+02
707             	3.24190353e+02
708             	3.24190354e+02
709             	3.24190347e+02
710             	3.24190341e+02
711             	3.24190339e+02
712             	3.24190339e+02
713             	3.24190335e+02
714             	3.24190333e+02
715             	3.24190334e+02
716             	3.24190334e+02
717             	3.24190333e+02
718             	3.24190333e+02
719             	3.24190331e+02
720             	3.24190326e+02
721             	3.24190320e+02
722             	3.24190310e+02
723             	3.24190303e+02
724             	3.24190302e+02
725             	3.24190300e+02
726             	3.24190296e+02
727             	3.24190290e+02
728             	3.24190288e+02
729             	3.24190290e+02
730             	3.24190282e+02
731             	3.24190272e+02
732             	3.24190263e+02
733             	3.24190255e+02
734             	3.24190247e+02
735             	3.24190239e+02
736             	3.24190231e+02
737             	3.24190223e+02
738             	3.24190213e+02
739             	3.24190202e+02
740             	3.24190196e+02
741             	3.24190196e+02
742             	3.24190189e+02
743             	3.24190182e+02
744             	3.24190182e+02
745             	3.24190174e+02
746             	3.24190168e+02
747             	3.24190164e+02
748             	3.24190155e+02
749             	3.24190155e+02
750             	3.24190147e+02
751             	3.24190147e+02
752             	3.24190141e+02
753             	3.24190136e+02
754             	3.24190136e+02
755             	3.24190130e+02
756             	3.24190116e+02
757             	3.24190111e+02
758             	3.24190111e+02
759             	3.24190111e+02
760             	3.24190103e+02
761             	3.24190103e+02
762             	3.24190095e+02
763             	3.24190089e+02
764             	3.24190089e+02
765             	3.24190080e+02
766             	3.24190080e+02
767             	3.24190080e+02
768             	3.24190080e+02
769             	3.24190080e+02
770             	3.24190074e+02
771             	3.24190074e+02
772             	3.24190064e+02
773             	3.24190064e+02
774             	3.24190064e+02
775             	3.24190064e+02
776             	3.24190064e+02
777             	3.24190061e+02
778             	3.24190060e+02
779             	3.24190060e+02
780             	3.24190051e+02
781             	3.24190051e+02
782             	3.24190044e+02
783             	3.24190038e+02
784             	3.24190038e+02
785             	3.24190035e+02
786             	3.24190035e+02
787             	3.24190029e+02
788             	3.24190029e+02
789             	3.24190029e+02
790             	3.24190029e+02
791             	3.24190024e+02
792             	3.24190024e+02
793             	3.24190024e+02
794             	3.24190024e+02
795             	3.24190024e+02
796             	3.24190024e+02
797             	3.24190024e+02
798             	3.24190024e+02
799             	3.24190024e+02
800             	3.24190024e+02
801             	3.24190024e+02
802             	3.24190024e+02
803             	3.24190024e+02
804             	3.24190024e+02
805             	3.24190024e+02
806             	3.24190024e+02
807             	3.24190024e+02
808             	3.24190024e+02
809             	3.24190024e+02
810             	3.24190024e+02
811             	3.24190024e+02
812             	3.24190024e+02
813             	3.24190024e+02
814             	3.24190024e+02
815             	3.24190024e+02
816             	3.24190024e+02
817             	3.24190024e+02
818             	3.24190024e+02
819             	3.24190024e+02
820             	3.24190024e+02
821             	3.24190024e+02
822             	3.24190024e+02
823             	3.24190024e+02
824             	3.24190024e+02
825             	3.24190024e+02
826             	3.24190024e+02
827             	3.24190024e+02
828             	3.24190024e+02
829             	3.24190024e+02
830             	3.24190024e+02
831             	3.24190024e+02
832             	3.24190024e+02
833             	3.24190024e+02
834             	3.24190024e+02
835             	3.24190024e+02
836             	3.24190024e+02
837             	3.24190024e+02
838             	3.24190024e+02
839             	3.24190024e+02
840             	3.24190024e+02
841             	3.24190024e+02
842             	3.24190024e+02
843             	3.24190024e+02
844             	3.24190024e+02
845             	3.24190024e+02
846             	3.24190024e+02
847             	3.24190024e+02
848             	3.24190024e+02
849             	3.24190024e+02
850             	3.24190024e+02
851             	3.24190024e+02
852             	3.24190024e+02
853             	3.24190024e+02
854             	3.24190024e+02
855             	3.24190024e+02
856             	3.24190024e+02
857             	3.24190024e+02
858             	3.24190024e+02
859             	3.24190024e+02
860             	3.24190024e+02
861             	3.24190024e+02
862             	3.24190024e+02
863             	3.24190024e+02
864             	3.24190024e+02
865             	3.24190024e+02
866             	3.24190024e+02
867             	3.24190024e+02
868             	3.24190024e+02
869             	3.24190024e+02
870             	3.24190024e+02
871             	3.24190024e+02
872             	3.24190024e+02
873             	3.24190024e+02
874             	3.24190024e+02
875             	3.24190024e+02
876             	3.24190024e+02
877             	3.24190024e+02
878             	3.24190024e+02
879             	3.24190024e+02
880             	3.24190024e+02
881             	3.24190024e+02
882             	3.24190024e+02
883             	3.24190024e+02
884             	3.24190024e+02
885             	3.24190024e+02
886             	3.24190024e+02
887             	3.24190024e+02
888             	3.24190024e+02
889             	3.24190024e+02
890             	3.24190024e+02
891             	3.24190024e+02
892             	3.24190024e+02
893             	3.24190024e+02
894             	3.24190024e+02
895             	3.24190024e+02
896             	3.24190024e+02
897             	3.24190024e+02
898             	3.24190024e+02
899             	3.24190024e+02
900             	3.24190024e+02
901             	3.24190024e+02
902             	3.24190024e+02
903             	3.24190024e+02
904             	3.24190024e+02
905             	3.24190024e+02
906             	3.24190024e+02
907             	3.24190024e+02
908             	3.24190024e+02
909             	3.24190024e+02
910             	3.24190024e+02
911             	3.24190024e+02
912             	3.24190024e+02
913             	3.24190024e+02
914             	3.24190024e+02
915             	3.24190024e+02
916             	3.24190024e+02
917             	3.24190024e+02
918             	3.24190024e+02
919             	3.24190024e+02
920             	3.24190024e+02
921             	3.24190024e+02
922             	3.24190024e+02
923             	3.24190024e+02
924             	3.24190024e+02
925             	3.24190024e+02
926             	3.24190024e+02
927             	3.24190024e+02
928             	3.24190024e+02
929             	3.24190024e+02
930             	3.24190024e+02
931             	3.24190024e+02
932             	3.24190024e+02
933             	3.24190024e+02