# Region        : cellZone component_3
# Cells         : 97
# Volume        : 4.14015506e-02
# Time          	volAverage(T)
1               	3.00527965e+02
2               	3.01049425e+02
3               	3.01557063e+02
4               	3.02055356e+02
5               	3.02546775e+02
6               	3.03032537e+02
7               	3.03513011e+02
8               	3.03989002e+02
9               	3.04461104e+02
10              	3.04929693e+02
11              	3.05395855e+02
12              	3.05859218e+02
13              	3.06316147e+02
14              	3.06768329e+02
15              	3.07218949e+02
16              	3.07666095e+02
17              	3.08109315e+02
18              	3.08548610e+02
19              	3.08984300e+02
20              	3.09413627e+02
21              	3.09839506e+02
22              	3.10263208e+02
23              	3.10684080e+02
24              	3.11101681e+02
25              	3.11516891e+02
26              	3.11931210e+02
27              	3.12348893e+02
28              	3.12760991e+02
29              	3.13163768e+02
30              	3.13565944e+02
31              	3.13965469e+02
32              	3.14361149e+02
33              	3.14752068e+02
34              	3.15139138e+02
35              	3.15521808e+02
36              	3.15900359e+02
37              	3.16275256e+02
38              	3.16645185e+02
39              	3.17013405e+02
40              	3.17379210e+02
41              	3.17742612e+02
42              	3.18105823e+02
43              	3.18469788e+02
44              	3.18836251e+02
45              	3.19202193e+02
46              	3.19567931e+02
47              	3.19932509e+02
48              	3.20294283e+02
49              	3.20654488e+02
50              	3.21012752e+02
51              	3.21370078e+02
52              	3.21727095e+02
53              	3.22085198e+02
54              	3.22442577e+02
55              	3.22799878e+02
56              	3.23155093e+02
57              	3.23508627e+02
58              	3.23859543e+02
59              	3.24207596e+02
60              	3.24551902e+02
61              	3.24892816e+02
62              	3.25228737e+02
63              	3.25561947e+02
64              	3.25892357e+02
65              	3.26223273e+02
66              	3.26555385e+02
67              	3.26889240e+02
68              	3.27215238e+02
69              	3.27538123e+02
70              	3.27860663e+02
71              	3.28178612e+02
72              	3.28490777e+02
73              	3.28793156e+02
74              	3.29093735e+02
75              	3.29398634e+02
76              	3.29702188e+02
77              	3.30000388e+02
78              	3.30298575e+02
79              	3.30595852e+02
80              	3.30892355e+02
81              	3.31186523e+02
82              	3.31481643e+02
83              	3.31778004e+02
84              	3.32074367e+02
85              	3.32373000e+02
86              	3.32679409e+02
87              	3.32975681e+02
88              	3.33260705e+02
89              	3.33542805e+02
90              	3.33825991e+02
91              	3.34102172e+02
92              	3.34371083e+02
93              	3.34634164e+02
94              	3.34893124e+02
95              	3.35152972e+02
96              	3.35415841e+02
97              	3.35679702e+02
98              	3.35943138e+02
99              	3.36209066e+02
100             	3.36477873e+02
101             	3.36746126e+02
102             	3.37015510e+02
103             	3.37281655e+02
104             	3.37541737e+02
105             	3.37793410e+02
106             	3.38038999e+02
107             	3.38281668e+02
108             	3.38518851e+02
109             	3.38752538e+02
110             	3.38985091e+02
111             	3.39219295e+02
112             	3.39454809e+02
113             	3.39696125e+02
114             	3.39941238e+02
115             	3.40190501e+02
116             	3.40441752e+02
117             	3.40691604e+02
118             	3.40938999e+02
119             	3.41183490e+02
120             	3.41424387e+02
121             	3.41661790e+02
122             	3.41894706e+02
123             	3.42124163e+02
124             	3.42351208e+02
125             	3.42575785e+02
126             	3.42798308e+02
127             	3.43019776e+02
128             	3.43241432e+02
129             	3.43464847e+02
130             	3.43690125e+02
131             	3.43916126e+02
132             	3.44143569e+02
133             	3.44374351e+02
134             	3.44606380e+02
135             	3.44838422e+02
136             	3.45070480e+02
137             	3.45301320e+02
138             	3.45528664e+02
139             	3.45751766e+02
140             	3.45970518e+02
141             	3.46185956e+02
142             	3.46398593e+02
143             	3.46609647e+02
144             	3.46819887e+02
145             	3.47029983e+02
146             	3.47244206e+02
147             	3.47460937e+02
148             	3.47679122e+02
149             	3.47898440e+02
150             	3.48118044e+02
151             	3.48339121e+02
152             	3.48557861e+02
153             	3.48775557e+02
154             	3.48991728e+02
155             	3.49205526e+02
156             	3.49415553e+02
157             	3.49621350e+02
158             	3.49824202e+02
159             	3.50024549e+02
160             	3.50222532e+02
161             	3.50421059e+02
162             	3.50621935e+02
163             	3.50824025e+02
164             	3.51028625e+02
165             	3.51235237e+02
166             	3.51441079e+02
167             	3.51646704e+02
168             	3.51852867e+02
169             	3.52058143e+02
170             	3.52260616e+02
171             	3.52460281e+02
172             	3.52656402e+02
173             	3.52849565e+02
174             	3.53040015e+02
175             	3.53229792e+02
176             	3.53418893e+02
177             	3.53609270e+02
178             	3.53799545e+02
179             	3.53987245e+02
180             	3.54176660e+02
181             	3.54367723e+02
182             	3.54558838e+02
183             	3.54745750e+02
184             	3.54933196e+02
185             	3.55119944e+02
186             	3.55305309e+02
187             	3.55489476e+02
188             	3.55672096e+02
189             	3.55852505e+02
190             	3.56030021e+02
191             	3.56204094e+02
192             	3.56377372e+02
193             	3.56549838e+02
194             	3.56722549e+02
195             	3.56897066e+02
196             	3.57072891e+02
197             	3.57249414e+02
198             	3.57427113e+02
199             	3.57605431e+02
200             	3.57783173e+02
201             	3.57957683e+02
202             	3.58133009e+02
203             	3.58306308e+02
204             	3.58478116e+02
205             	3.58647830e+02
206             	3.58816437e+02
207             	3.58983998e+02
208             	3.59150484e+02
209             	3.59315998e+02
210             	3.59480593e+02
211             	3.59644976e+02
212             	3.59810496e+02
213             	3.59976224e+02
214             	3.60142309e+02
215             	3.60308645e+02
216             	3.60473994e+02
217             	3.60641080e+02
218             	3.60808586e+02
219             	3.60974929e+02
220             	3.61139367e+02
221             	3.61302738e+02
222             	3.61464680e+02
223             	3.61624688e+02
224             	3.61783458e+02
225             	3.61941193e+02
226             	3.62098083e+02
227             	3.62253107e+02
228             	3.62408467e+02
229             	3.62563061e+02
230             	3.62717021e+02
231             	3.62870712e+02
232             	3.63024274e+02
233             	3.63176343e+02
234             	3.63327751e+02
235             	3.63477220e+02
236             	3.63626597e+02
237             	3.63775318e+02
238             	3.63922281e+02
239             	3.64068021e+02
240             	3.64212862e+02
241             	3.64357572e+02
242             	3.64501592e+02
243             	3.64644196e+02
244             	3.64784143e+02
245             	3.64923446e+02
246             	3.65061763e+02
247             	3.65199355e+02
248             	3.65337015e+02
249             	3.65475070e+02
250             	3.65613451e+02
251             	3.65752016e+02
252             	3.65890319e+02
253             	3.66027426e+02
254             	3.66164773e+02
255             	3.66301918e+02
256             	3.66438928e+02
257             	3.66575896e+02
258             	3.66712601e+02
259             	3.66849053e+02
260             	3.66985334e+02
261             	3.67121117e+02
262             	3.67256435e+02
263             	3.67391100e+02
264             	3.67523713e+02
265             	3.67653968e+02
266             	3.67782915e+02
267             	3.67911136e+02
268             	3.68038332e+02
269             	3.68164785e+02
270             	3.68290673e+02
271             	3.68416150e+02
272             	3.68541908e+02
273             	3.68668157e+02
274             	3.68794789e+02
275             	3.68919250e+02
276             	3.69043908e+02
277             	3.69168735e+02
278             	3.69294341e+02
279             	3.69418807e+02
280             	3.69542733e+02
281             	3.69666347e+02
282             	3.69788848e+02
283             	3.69910519e+02
284             	3.70030525e+02
285             	3.70149876e+02
286             	3.70268100e+02
287             	3.70384853e+02
288             	3.70500425e+02
289             	3.70614770e+02
290             	3.70728794e+02
291             	3.70842644e+02
292             	3.70956004e+02
293             	3.71068969e+02
294             	3.71181973e+02
295             	3.71295321e+02
296             	3.71408181e+02
297             	3.71521411e+02
298             	3.71634198e+02
299             	3.71746297e+02
300             	3.71858448e+02
301             	3.71969311e+02
302             	3.72079958e+02
303             	3.72189818e+02
304             	3.72299228e+02
305             	3.72408119e+02
306             	3.72516776e+02
307             	3.72623546e+02
308             	3.72729996e+02
309             	3.72836058e+02
310             	3.72942089e+02
311             	3.73047786e+02
312             	3.73153070e+02
313             	3.73257851e+02
314             	3.73362062e+02
315             	3.73465808e+02
316             	3.73569755e+02
317             	3.73672898e+02
318             	3.73776248e+02
319             	3.73879460e+02
320             	3.73981937e+02
321             	3.74083232e+02
322             	3.74183463e+02
323             	3.74282589e+02
324             	3.74381268e+02
325             	3.74479417e+02
326             	3.74577231e+02
327             	3.74674956e+02
328             	3.74772689e+02
329             	3.74870087e+02
330             	3.74965219e+02
331             	3.75060218e+02
332             	3.75154717e+02
333             	3.75248862e+02
334             	3.75342575e+02
335             	3.75435814e+02
336             	3.75528576e+02
337             	3.75620930e+02
338             	3.75713243e+02
339             	3.75805350e+02
340             	3.75897005e+02
341             	3.75988200e+02
342             	3.76078747e+02
343             	3.76168342e+02
344             	3.76257627e+02
345             	3.76346554e+02
346             	3.76435584e+02
347             	3.76524418e+02
348             	3.76612431e+02
349             	3.76699396e+02
350             	3.76784864e+02
351             	3.76870202e+02
352             	3.76955169e+02
353             	3.77039687e+02
354             	3.77123913e+02
355             	3.77207875e+02
356             	3.77291901e+02
357             	3.77376335e+02
358             	3.77461288e+02
359             	3.77546817e+02
360             	3.77632549e+02
361             	3.77718376e+02
362             	3.77804019e+02
363             	3.77888234e+02
364             	3.77971486e+02
365             	3.78053490e+02
366             	3.78134913e+02
367             	3.78215640e+02
368             	3.78295600e+02
369             	3.78374859e+02
370             	3.78453479e+02
371             	3.78531560e+02
372             	3.78609125e+02
373             	3.78686230e+02
374             	3.78762853e+02
375             	3.78840390e+02
376             	3.78917391e+02
377             	3.78994195e+02
378             	3.79070939e+02
379             	3.79147501e+02
380             	3.79224125e+02
381             	3.79300575e+02
382             	3.79376795e+02
383             	3.79451756e+02
384             	3.79526768e+02
385             	3.79600626e+02
386             	3.79673698e+02
387             	3.79745791e+02
388             	3.79816749e+02
389             	3.79887096e+02
390             	3.79956921e+02
391             	3.80026005e+02
392             	3.80095489e+02
393             	3.80164971e+02
394             	3.80234573e+02
395             	3.80304272e+02
396             	3.80374040e+02
397             	3.80443670e+02
398             	3.80513008e+02
399             	3.80581901e+02
400             	3.80650669e+02
401             	3.80718962e+02
402             	3.80786816e+02
403             	3.80853903e+02
404             	3.80921060e+02
405             	3.80987446e+02
406             	3.81052530e+02
407             	3.81117675e+02
408             	3.81182634e+02
409             	3.81247397e+02
410             	3.81311537e+02
411             	3.81375460e+02
412             	3.81439214e+02
413             	3.81503027e+02
414             	3.81566894e+02
415             	3.81630869e+02
416             	3.81694196e+02
417             	3.81756824e+02
418             	3.81819852e+02
419             	3.81882774e+02
420             	3.81945616e+02
421             	3.82007991e+02
422             	3.82069744e+02
423             	3.82130919e+02
424             	3.82192108e+02
425             	3.82252433e+02
426             	3.82312316e+02
427             	3.82371120e+02
428             	3.82429437e+02
429             	3.82487027e+02
430             	3.82544609e+02
431             	3.82601384e+02
432             	3.82658036e+02
433             	3.82715388e+02
434             	3.82773258e+02
435             	3.82831221e+02
436             	3.82888255e+02
437             	3.82943905e+02
438             	3.82999579e+02
439             	3.83055124e+02
440             	3.83110622e+02
441             	3.83165804e+02
442             	3.83220545e+02
443             	3.83275052e+02
444             	3.83329283e+02
445             	3.83383534e+02
446             	3.83438680e+02
447             	3.83493935e+02
448             	3.83548929e+02
449             	3.83604806e+02
450             	3.83661156e+02
451             	3.83717793e+02
452             	3.83774310e+02
453             	3.83830043e+02
454             	3.83885133e+02
455             	3.83937734e+02
456             	3.83991005e+02
457             	3.84043865e+02
458             	3.84095841e+02
459             	3.84147114e+02
460             	3.84198213e+02
461             	3.84249180e+02
462             	3.84300057e+02
463             	3.84350671e+02
464             	3.84400937e+02
465             	3.84450724e+02
466             	3.84500264e+02
467             	3.84549414e+02
468             	3.84597901e+02
469             	3.84646261e+02
470             	3.84694556e+02
471             	3.84741936e+02
472             	3.84788889e+02
473             	3.84835151e+02
474             	3.84880878e+02
475             	3.84926506e+02
476             	3.84971669e+02
477             	3.85016589e+02
478             	3.85061363e+02
479             	3.85106009e+02
480             	3.85150902e+02
481             	3.85195908e+02
482             	3.85240259e+02
483             	3.85285441e+02
484             	3.85330302e+02
485             	3.85375197e+02
486             	3.85420338e+02
487             	3.85465629e+02
488             	3.85510926e+02
489             	3.85556195e+02
490             	3.85601490e+02
491             	3.85646880e+02
492             	3.85691880e+02
493             	3.85737147e+02
494             	3.85781835e+02
495             	3.85826476e+02
496             	3.85870686e+02
497             	3.85914454e+02
498             	3.85957858e+02
499             	3.86000910e+02
500             	3.86043610e+02
501             	3.86086340e+02
502             	3.86128618e+02
503             	3.86170269e+02
504             	3.86211409e+02
505             	3.86251125e+02
506             	3.86291048e+02
507             	3.86330772e+02
508             	3.86370028e+02
509             	3.86408479e+02
510             	3.86446537e+02
511             	3.86483959e+02
512             	3.86521360e+02
513             	3.86558637e+02
514             	3.86595408e+02
515             	3.86632335e+02
516             	3.86669694e+02
517             	3.86707154e+02
518             	3.86744733e+02
519             	3.86782381e+02
520             	3.86820118e+02
521             	3.86857839e+02
522             	3.86895734e+02
523             	3.86933628e+02
524             	3.86971335e+02
525             	3.87008697e+02
526             	3.87045184e+02
527             	3.87081078e+02
528             	3.87116345e+02
529             	3.87151307e+02
530             	3.87185773e+02
531             	3.87220675e+02
532             	3.87255005e+02
533             	3.87289197e+02
534             	3.87323366e+02
535             	3.87357380e+02
536             	3.87391987e+02
537             	3.87426553e+02
538             	3.87461494e+02
539             	3.87496012e+02
540             	3.87530082e+02
541             	3.87563610e+02
542             	3.87596529e+02
543             	3.87628936e+02
544             	3.87661652e+02
545             	3.87693633e+02
546             	3.87724912e+02
547             	3.87755780e+02
548             	3.87786229e+02
549             	3.87815740e+02
550             	3.87844841e+02
551             	3.87874062e+02
552             	3.87903159e+02
553             	3.87932152e+02
554             	3.87961126e+02
555             	3.87990171e+02
556             	3.88019340e+02
557             	3.88048525e+02
558             	3.88077601e+02
559             	3.88106689e+02
560             	3.88136016e+02
561             	3.88165967e+02
562             	3.88196306e+02
563             	3.88227418e+02
564             	3.88259210e+02
565             	3.88291343e+02
566             	3.88323447e+02
567             	3.88355353e+02
568             	3.88386456e+02
569             	3.88417007e+02
570             	3.88447546e+02
571             	3.88477588e+02
572             	3.88507841e+02
573             	3.88537215e+02
574             	3.88566143e+02
575             	3.88593786e+02
576             	3.88621872e+02
577             	3.88649799e+02
578             	3.88677635e+02
579             	3.88705479e+02
580             	3.88733280e+02
581             	3.88760939e+02
582             	3.88788414e+02
583             	3.88815755e+02
584             	3.88843216e+02
585             	3.88870688e+02
586             	3.88897952e+02
587             	3.88924872e+02
588             	3.88951342e+02
589             	3.88977389e+02
590             	3.89002937e+02
591             	3.89028144e+02
592             	3.89052945e+02
593             	3.89077530e+02
594             	3.89101852e+02
595             	3.89125469e+02
596             	3.89148518e+02
597             	3.89171404e+02
598             	3.89194118e+02
599             	3.89216498e+02
600             	3.89238538e+02
601             	3.89260834e+02
602             	3.89282860e+02
603             	3.89304715e+02
604             	3.89326472e+02
605             	3.89348264e+02
606             	3.89370644e+02
607             	3.89393433e+02
608             	3.89416790e+02
609             	3.89440691e+02
610             	3.89464776e+02
611             	3.89488991e+02
612             	3.89513090e+02
613             	3.89535668e+02
614             	3.89557059e+02
615             	3.89577953e+02
616             	3.89599187e+02
617             	3.89620658e+02
618             	3.89642972e+02
619             	3.89665203e+02
620             	3.89687901e+02
621             	3.89710575e+02
622             	3.89733252e+02
623             	3.89756147e+02
624             	3.89779329e+02
625             	3.89802828e+02
626             	3.89826598e+02
627             	3.89850461e+02
628             	3.89874511e+02
629             	3.89898901e+02
630             	3.89923338e+02
631             	3.89947149e+02
632             	3.89970292e+02
633             	3.89992564e+02
634             	3.90013955e+02
635             	3.90034534e+02
636             	3.90054429e+02
637             	3.90073715e+02
638             	3.90092235e+02
639             	3.90110493e+02
640             	3.90128598e+02
641             	3.90146611e+02
642             	3.90163965e+02
643             	3.90181781e+02
644             	3.90199736e+02
645             	3.90217732e+02
646             	3.90235772e+02
647             	3.90253845e+02
648             	3.90271974e+02
649             	3.90290190e+02
650             	3.90308719e+02
651             	3.90327714e+02
652             	3.90346964e+02
653             	3.90366285e+02
654             	3.90385342e+02
655             	3.90403378e+02
656             	3.90420793e+02
657             	3.90437443e+02
658             	3.90453731e+02
659             	3.90470019e+02
660             	3.90486177e+02
661             	3.90502409e+02
662             	3.90517898e+02
663             	3.90534408e+02
664             	3.90551977e+02
665             	3.90569875e+02
666             	3.90588095e+02
667             	3.90606511e+02
668             	3.90625195e+02
669             	3.90644248e+02
670             	3.90663614e+02
671             	3.90683093e+02
672             	3.90702702e+02
673             	3.90722477e+02
674             	3.90742113e+02
675             	3.90761771e+02
676             	3.90781023e+02
677             	3.90799738e+02
678             	3.90817867e+02
679             	3.90835369e+02
680             	3.90852247e+02
681             	3.90868485e+02
682             	3.90884072e+02
683             	3.90899275e+02
684             	3.90914296e+02
685             	3.90929076e+02
686             	3.90943244e+02
687             	3.90957810e+02
688             	3.90972435e+02
689             	3.90987001e+02
690             	3.91001578e+02
691             	3.91016078e+02
692             	3.91030520e+02
693             	3.91044965e+02
694             	3.91059425e+02
695             	3.91074022e+02
696             	3.91089168e+02
697             	3.91104982e+02
698             	3.91121292e+02
699             	3.91137744e+02
700             	3.91153998e+02
701             	3.91168890e+02
702             	3.91182646e+02
703             	3.91195834e+02
704             	3.91208788e+02
705             	3.91221994e+02
706             	3.91235779e+02
707             	3.91250300e+02
708             	3.91265479e+02
709             	3.91281015e+02
710             	3.91296461e+02
711             	3.91311938e+02
712             	3.91326791e+02
713             	3.91342620e+02
714             	3.91359216e+02
715             	3.91375989e+02
716             	3.91392944e+02
717             	3.91409842e+02
718             	3.91426293e+02
719             	3.91442539e+02
720             	3.91458328e+02
721             	3.91473848e+02
722             	3.91488915e+02
723             	3.91503463e+02
724             	3.91517525e+02
725             	3.91531098e+02
726             	3.91544191e+02
727             	3.91556866e+02
728             	3.91569560e+02
729             	3.91582360e+02
730             	3.91595262e+02
731             	3.91608179e+02
732             	3.91620914e+02
733             	3.91633154e+02
734             	3.91645307e+02
735             	3.91657286e+02
736             	3.91668988e+02
737             	3.91680346e+02
738             	3.91691464e+02
739             	3.91702295e+02
740             	3.91713100e+02
741             	3.91724336e+02
742             	3.91736089e+02
743             	3.91748265e+02
744             	3.91760608e+02
745             	3.91772626e+02
746             	3.91783176e+02
747             	3.91792793e+02
748             	3.91802058e+02
749             	3.91811045e+02
750             	3.91820393e+02
751             	3.91830495e+02
752             	3.91841475e+02
753             	3.91853042e+02
754             	3.91864950e+02
755             	3.91876860e+02
756             	3.91888911e+02
757             	3.91900911e+02
758             	3.91913733e+02
759             	3.91927209e+02
760             	3.91941288e+02
761             	3.91955776e+02
762             	3.91970557e+02
763             	3.91985470e+02
764             	3.92000362e+02
765             	3.92015173e+02
766             	3.92029575e+02
767             	3.92043546e+02
768             	3.92057052e+02
769             	3.92070085e+02
770             	3.92082618e+02
771             	3.92094644e+02
772             	3.92106156e+02
773             	3.92117117e+02
774             	3.92127505e+02
775             	3.92137627e+02
776             	3.92147581e+02
777             	3.92157789e+02
778             	3.92167816e+02
779             	3.92177577e+02
780             	3.92187348e+02
781             	3.92196973e+02
782             	3.92206563e+02
783             	3.92216057e+02
784             	3.92225530e+02
785             	3.92235108e+02
786             	3.92244916e+02
787             	3.92255078e+02
788             	3.92265154e+02
789             	3.92275640e+02
790             	3.92286636e+02
791             	3.92297993e+02
792             	3.92309463e+02
793             	3.92320760e+02
794             	3.92331764e+02
795             	3.92342316e+02
796             	3.92352173e+02
797             	3.92361729e+02
798             	3.92370913e+02
799             	3.92379754e+02
800             	3.92388183e+02
801             	3.92396363e+02
802             	3.92405141e+02
803             	3.92414653e+02
804             	3.92424229e+02
805             	3.92434477e+02
806             	3.92445571e+02
807             	3.92456868e+02
808             	3.92468035e+02
809             	3.92479569e+02
810             	3.92491163e+02
811             	3.92502500e+02
812             	3.92513749e+02
813             	3.92524693e+02
814             	3.92535288e+02
815             	3.92545478e+02
816             	3.92555817e+02
817             	3.92565376e+02
818             	3.92574318e+02
819             	3.92582719e+02
820             	3.92590458e+02
821             	3.92597982e+02
822             	3.92605295e+02
823             	3.92612851e+02
824             	3.92620544e+02
825             	3.92628555e+02
826             	3.92637045e+02
827             	3.92645911e+02
828             	3.92654866e+02
829             	3.92663783e+02
830             	3.92672840e+02
831             	3.92682172e+02
832             	3.92691521e+02
833             	3.92701275e+02
834             	3.92711364e+02
835             	3.92721348e+02
836             	3.92731002e+02
837             	3.92740118e+02
838             	3.92748097e+02
839             	3.92755659e+02
840             	3.92763665e+02
841             	3.92771652e+02
842             	3.92778919e+02
843             	3.92786266e+02
844             	3.92794727e+02
845             	3.92803771e+02
846             	3.92812617e+02
847             	3.92821288e+02
848             	3.92830165e+02
849             	3.92839360e+02
850             	3.92849183e+02
851             	3.92859146e+02
852             	3.92869010e+02
853             	3.92878881e+02
854             	3.92888840e+02
855             	3.92898572e+02
856             	3.92907836e+02
857             	3.92916586e+02
858             	3.92924819e+02
859             	3.92932508e+02
860             	3.92939799e+02
861             	3.92946601e+02
862             	3.92953139e+02
863             	3.92959526e+02
864             	3.92965676e+02
865             	3.92971217e+02
866             	3.92976449e+02
867             	3.92981063e+02
868             	3.92985684e+02
869             	3.92990181e+02
870             	3.92994593e+02
871             	3.92999218e+02
872             	3.93004016e+02
873             	3.93008955e+02
874             	3.93014195e+02
875             	3.93019907e+02
876             	3.93026073e+02
877             	3.93032915e+02
878             	3.93040447e+02
879             	3.93048676e+02
880             	3.93057358e+02
881             	3.93066598e+02
882             	3.93076451e+02
883             	3.93086676e+02
884             	3.93096659e+02
885             	3.93106150e+02
886             	3.93115490e+02
887             	3.93124739e+02
888             	3.93132874e+02
889             	3.93140281e+02
890             	3.93147381e+02
891             	3.93153999e+02
892             	3.93160661e+02
893             	3.93167514e+02
894             	3.93174586e+02
895             	3.93181659e+02
896             	3.93188837e+02
897             	3.93196041e+02
898             	3.93203458e+02
899             	3.93210709e+02
900             	3.93218239e+02
901             	3.93225936e+02
902             	3.93233524e+02
903             	3.93240854e+02
904             	3.93247918e+02
905             	3.93254839e+02
906             	3.93261453e+02
907             	3.93268305e+02
908             	3.93274639e+02
909             	3.93280641e+02
910             	3.93286298e+02
911             	3.93291891e+02
912             	3.93297289e+02
913             	3.93302446e+02
914             	3.93307213e+02
915             	3.93311866e+02
916             	3.93316417e+02
917             	3.93320794e+02
918             	3.93325098e+02
919             	3.93329349e+02
920             	3.93333705e+02
921             	3.93338469e+02
922             	3.93343863e+02
923             	3.93349563e+02
924             	3.93355472e+02
925             	3.93361310e+02
926             	3.93366977e+02
927             	3.93371919e+02
928             	3.93375922e+02
929             	3.93379584e+02
930             	3.93383402e+02
931             	3.93387884e+02
932             	3.93392733e+02
933             	3.93397931e+02