# Region        : cellZone component_2
# Cells         : 273
# Volume        : 5.80482533e-01
# Time          	volAverage(T)
1               	3.00250986e+02
2               	3.00499641e+02
3               	3.00733369e+02
4               	3.00956374e+02
5               	3.01173018e+02
6               	3.01385156e+02
7               	3.01593544e+02
8               	3.01799200e+02
9               	3.02002666e+02
10              	3.02204116e+02
11              	3.02403163e+02
12              	3.02598872e+02
13              	3.02792359e+02
14              	3.02983218e+02
15              	3.03172166e+02
16              	3.03358045e+02
17              	3.03540949e+02
18              	3.03721796e+02
19              	3.03901204e+02
20              	3.04078853e+02
21              	3.04254882e+02
22              	3.04427898e+02
23              	3.04597706e+02
24              	3.04763486e+02
25              	3.04924856e+02
26              	3.05083924e+02
27              	3.05239524e+02
28              	3.05390571e+02
29              	3.05538981e+02
30              	3.05684389e+02
31              	3.05825142e+02
32              	3.05963414e+02
33              	3.06098673e+02
34              	3.06219760e+02
35              	3.06329613e+02
36              	3.06432668e+02
37              	3.06538584e+02
38              	3.06645722e+02
39              	3.06745554e+02
40              	3.06843892e+02
41              	3.06941394e+02
42              	3.07040136e+02
43              	3.07138383e+02
44              	3.07237708e+02
45              	3.07335226e+02
46              	3.07432720e+02
47              	3.07527207e+02
48              	3.07617333e+02
49              	3.07704426e+02
50              	3.07784912e+02
51              	3.07860488e+02
52              	3.07933902e+02
53              	3.08007308e+02
54              	3.08080072e+02
55              	3.08154213e+02
56              	3.08230176e+02
57              	3.08307905e+02
58              	3.08386608e+02
59              	3.08462786e+02
60              	3.08542543e+02
61              	3.08618903e+02
62              	3.08695526e+02
63              	3.08769737e+02
64              	3.08843163e+02
65              	3.08908963e+02
66              	3.08966896e+02
67              	3.09019634e+02
68              	3.09072722e+02
69              	3.09125845e+02
70              	3.09180240e+02
71              	3.09235841e+02
72              	3.09292191e+02
73              	3.09350376e+02
74              	3.09409570e+02
75              	3.09469299e+02
76              	3.09529709e+02
77              	3.09589558e+02
78              	3.09646831e+02
79              	3.09700003e+02
80              	3.09749191e+02
81              	3.09795915e+02
82              	3.09843371e+02
83              	3.09890474e+02
84              	3.09937785e+02
85              	3.09985977e+02
86              	3.10034158e+02
87              	3.10081159e+02
88              	3.10127655e+02
89              	3.10173195e+02
90              	3.10214597e+02
91              	3.10251470e+02
92              	3.10284179e+02
93              	3.10317509e+02
94              	3.10351998e+02
95              	3.10388388e+02
96              	3.10427601e+02
97              	3.10468860e+02
98              	3.10510845e+02
99              	3.10552237e+02
100             	3.10594923e+02
101             	3.10635571e+02
102             	3.10675420e+02
103             	3.10712053e+02
104             	3.10745534e+02
105             	3.10776060e+02
106             	3.10803700e+02
107             	3.10828568e+02
108             	3.10852374e+02
109             	3.10874111e+02
110             	3.10896691e+02
111             	3.10919569e+02
112             	3.10942918e+02
113             	3.10966331e+02
114             	3.10990360e+02
115             	3.11015638e+02
116             	3.11041346e+02
117             	3.11067334e+02
118             	3.11092547e+02
119             	3.11116324e+02
120             	3.11140747e+02
121             	3.11165042e+02
122             	3.11188848e+02
123             	3.11211329e+02
124             	3.11233394e+02
125             	3.11254543e+02
126             	3.11273691e+02
127             	3.11292603e+02
128             	3.11312057e+02
129             	3.11332619e+02
130             	3.11353119e+02
131             	3.11373797e+02
132             	3.11395756e+02
133             	3.11417856e+02
134             	3.11440274e+02
135             	3.11462082e+02
136             	3.11483927e+02
137             	3.11505298e+02
138             	3.11526846e+02
139             	3.11543522e+02
140             	3.11559729e+02
141             	3.11575039e+02
142             	3.11589940e+02
143             	3.11606016e+02
144             	3.11621145e+02
145             	3.11637269e+02
146             	3.11655004e+02
147             	3.11673863e+02
148             	3.11694757e+02
149             	3.11715378e+02
150             	3.11735286e+02
151             	3.11754627e+02
152             	3.11773375e+02
153             	3.11790658e+02
154             	3.11807266e+02
155             	3.11822589e+02
156             	3.11836650e+02
157             	3.11848975e+02
158             	3.11860621e+02
159             	3.11872022e+02
160             	3.11883462e+02
161             	3.11894892e+02
162             	3.11906468e+02
163             	3.11918979e+02
164             	3.11932193e+02
165             	3.11945353e+02
166             	3.11959187e+02
167             	3.11974091e+02
168             	3.11989415e+02
169             	3.12003897e+02
170             	3.12018301e+02
171             	3.12032507e+02
172             	3.12045842e+02
173             	3.12058076e+02
174             	3.12068355e+02
175             	3.12077835e+02
176             	3.12087270e+02
177             	3.12096393e+02
178             	3.12105181e+02
179             	3.12113947e+02
180             	3.12123159e+02
181             	3.12132788e+02
182             	3.12143073e+02
183             	3.12153957e+02
184             	3.12165447e+02
185             	3.12178060e+02
186             	3.12191286e+02
187             	3.12204097e+02
188             	3.12216282e+02
189             	3.12227991e+02
190             	3.12238707e+02
191             	3.12248420e+02
192             	3.12258119e+02
193             	3.12267547e+02
194             	3.12276432e+02
195             	3.12285646e+02
196             	3.12294620e+02
197             	3.12303431e+02
198             	3.12311508e+02
199             	3.12319112e+02
200             	3.12326496e+02
201             	3.12333646e+02
202             	3.12340616e+02
203             	3.12347595e+02
204             	3.12354810e+02
205             	3.12362145e+02
206             	3.12369574e+02
207             	3.12376773e+02
208             	3.12383628e+02
209             	3.12390818e+02
210             	3.12397770e+02
211             	3.12405019e+02
212             	3.12412378e+02
213             	3.12419771e+02
214             	3.12427133e+02
215             	3.12433737e+02
216             	3.12439918e+02
217             	3.12445654e+02
218             	3.12451251e+02
219             	3.12456508e+02
220             	3.12460685e+02
221             	3.12464742e+02
222             	3.12468692e+02
223             	3.12472355e+02
224             	3.12476700e+02
225             	3.12481357e+02
226             	3.12486105e+02
227             	3.12490781e+02
228             	3.12495526e+02
229             	3.12500388e+02
230             	3.12505006e+02
231             	3.12509540e+02
232             	3.12514004e+02
233             	3.12518360e+02
234             	3.12522661e+02
235             	3.12527146e+02
236             	3.12531043e+02
237             	3.12534786e+02
238             	3.12538477e+02
239             	3.12542016e+02
240             	3.12545419e+02
241             	3.12548744e+02
242             	3.12552136e+02
243             	3.12555395e+02
244             	3.12558587e+02
245             	3.12561850e+02
246             	3.12565097e+02
247             	3.12568498e+02
248             	3.12571749e+02
249             	3.12575066e+02
250             	3.12578324e+02
251             	3.12581579e+02
252             	3.12584594e+02
253             	3.12587358e+02
254             	3.12590235e+02
255             	3.12593348e+02
256             	3.12596751e+02
257             	3.12600145e+02
258             	3.12603604e+02
259             	3.12607244e+02
260             	3.12611062e+02
261             	3.12614939e+02
262             	3.12618724e+02
263             	3.12622552e+02
264             	3.12626254e+02
265             	3.12629420e+02
266             	3.12632096e+02
267             	3.12634162e+02
268             	3.12635854e+02
269             	3.12637442e+02
270             	3.12638742e+02
271             	3.12639910e+02
272             	3.12641086e+02
273             	3.12642513e+02
274             	3.12644210e+02
275             	3.12645973e+02
276             	3.12647861e+02
277             	3.12649905e+02
278             	3.12651981e+02
279             	3.12654092e+02
280             	3.12656070e+02
281             	3.12657998e+02
282             	3.12659797e+02
283             	3.12661376e+02
284             	3.12662900e+02
285             	3.12664493e+02
286             	3.12666110e+02
287             	3.12667719e+02
288             	3.12669407e+02
289             	3.12671201e+02
290             	3.12672939e+02
291             	3.12674644e+02
292             	3.12676268e+02
293             	3.12677710e+02
294             	3.12679149e+02
295             	3.12680363e+02
296             	3.12681589e+02
297             	3.12682819e+02
298             	3.12684098e+02
299             	3.12685349e+02
300             	3.12686583e+02
301             	3.12687891e+02
302             	3.12689274e+02
303             	3.12690728e+02
304             	3.12692242e+02
305             	3.12693774e+02
306             	3.12695215e+02
307             	3.12696670e+02
308             	3.12698133e+02
309             	3.12699539e+02
310             	3.12700860e+02
311             	3.12702083e+02
312             	3.12703194e+02
313             	3.12704233e+02
314             	3.12705239e+02
315             	3.12706144e+02
316             	3.12706965e+02
317             	3.12707723e+02
318             	3.12708436e+02
319             	3.12709133e+02
320             	3.12709765e+02
321             	3.12710276e+02
322             	3.12710829e+02
323             	3.12711428e+02
324             	3.12712020e+02
325             	3.12712606e+02
326             	3.12713254e+02
327             	3.12713947e+02
328             	3.12714633e+02
329             	3.12715346e+02
330             	3.12716067e+02
331             	3.12716804e+02
332             	3.12717508e+02
333             	3.12718135e+02
334             	3.12718724e+02
335             	3.12719374e+02
336             	3.12720042e+02
337             	3.12720674e+02
338             	3.12721283e+02
339             	3.12721857e+02
340             	3.12722408e+02
341             	3.12722914e+02
342             	3.12723368e+02
343             	3.12723794e+02
344             	3.12724201e+02
345             	3.12724605e+02
346             	3.12725016e+02
347             	3.12725420e+02
348             	3.12725852e+02
349             	3.12726272e+02
350             	3.12726613e+02
351             	3.12727003e+02
352             	3.12727442e+02
353             	3.12727890e+02
354             	3.12728348e+02
355             	3.12728828e+02
356             	3.12729396e+02
357             	3.12729987e+02
358             	3.12730532e+02
359             	3.12731060e+02
360             	3.12731575e+02
361             	3.12732076e+02
362             	3.12732555e+02
363             	3.12733016e+02
364             	3.12733482e+02
365             	3.12733958e+02
366             	3.12734428e+02
367             	3.12734878e+02
368             	3.12735335e+02
369             	3.12735792e+02
370             	3.12736246e+02
371             	3.12736677e+02
372             	3.12737088e+02
373             	3.12737503e+02
374             	3.12737908e+02
375             	3.12738293e+02
376             	3.12738680e+02
377             	3.12739078e+02
378             	3.12739486e+02
379             	3.12739884e+02
380             	3.12740267e+02
381             	3.12740648e+02
382             	3.12740992e+02
383             	3.12741304e+02
384             	3.12741608e+02
385             	3.12741900e+02
386             	3.12742169e+02
387             	3.12742430e+02
388             	3.12742681e+02
389             	3.12742949e+02
390             	3.12743245e+02
391             	3.12743565e+02
392             	3.12743906e+02
393             	3.12744273e+02
394             	3.12744635e+02
395             	3.12744999e+02
396             	3.12745354e+02
397             	3.12745705e+02
398             	3.12746043e+02
399             	3.12746367e+02
400             	3.12746671e+02
401             	3.12746965e+02
402             	3.12747241e+02
403             	3.12747492e+02
404             	3.12747725e+02
405             	3.12747944e+02
406             	3.12748151e+02
407             	3.12748344e+02
408             	3.12748524e+02
409             	3.12748686e+02
410             	3.12748813e+02
411             	3.12748941e+02
412             	3.12749045e+02
413             	3.12749168e+02
414             	3.12749306e+02
415             	3.12749454e+02
416             	3.12749606e+02
417             	3.12749773e+02
418             	3.12749935e+02
419             	3.12750089e+02
420             	3.12750238e+02
421             	3.12750381e+02
422             	3.12750517e+02
423             	3.12750650e+02
424             	3.12750785e+02
425             	3.12750924e+02
426             	3.12751075e+02
427             	3.12751220e+02
428             	3.12751374e+02
429             	3.12751537e+02
430             	3.12751703e+02
431             	3.12751865e+02
432             	3.12752014e+02
433             	3.12752175e+02
434             	3.12752328e+02
435             	3.12752482e+02
436             	3.12752637e+02
437             	3.12752801e+02
438             	3.12752976e+02
439             	3.12753143e+02
440             	3.12753296e+02
441             	3.12753438e+02
442             	3.12753578e+02
443             	3.12753707e+02
444             	3.12753819e+02
445             	3.12753914e+02
446             	3.12753992e+02
447             	3.12754071e+02
448             	3.12754150e+02
449             	3.12754230e+02
450             	3.12754314e+02
451             	3.12754408e+02
452             	3.12754507e+02
453             	3.12754616e+02
454             	3.12754720e+02
455             	3.12754823e+02
456             	3.12754923e+02
457             	3.12755011e+02
458             	3.12755099e+02
459             	3.12755181e+02
460             	3.12755256e+02
461             	3.12755329e+02
462             	3.12755403e+02
463             	3.12755480e+02
464             	3.12755562e+02
465             	3.12755649e+02
466             	3.12755740e+02
467             	3.12755831e+02
468             	3.12755927e+02
469             	3.12756023e+02
470             	3.12756118e+02
471             	3.12756210e+02
472             	3.12756295e+02
473             	3.12756381e+02
474             	3.12756462e+02
475             	3.12756541e+02
476             	3.12756618e+02
477             	3.12756696e+02
478             	3.12756776e+02
479             	3.12756852e+02
480             	3.12756927e+02
481             	3.12756998e+02
482             	3.12757067e+02
483             	3.12757133e+02
484             	3.12757195e+02
485             	3.12757247e+02
486             	3.12757296e+02
487             	3.12757341e+02
488             	3.12757385e+02
489             	3.12757428e+02
490             	3.12757472e+02
491             	3.12757517e+02
492             	3.12757561e+02
493             	3.12757608e+02
494             	3.12757658e+02
495             	3.12757709e+02
496             	3.12757760e+02
497             	3.12757809e+02
498             	3.12757861e+02
499             	3.12757909e+02
500             	3.12757956e+02
501             	3.12758000e+02
502             	3.12758040e+02
503             	3.12758080e+02
504             	3.12758115e+02
505             	3.12758149e+02
506             	3.12758183e+02
507             	3.12758217e+02
508             	3.12758253e+02
509             	3.12758287e+02
510             	3.12758321e+02
511             	3.12758355e+02
512             	3.12758388e+02
513             	3.12758422e+02
514             	3.12758454e+02
515             	3.12758486e+02
516             	3.12758517e+02
517             	3.12758545e+02
518             	3.12758573e+02
519             	3.12758600e+02
520             	3.12758627e+02
521             	3.12758657e+02
522             	3.12758685e+02
523             	3.12758714e+02
524             	3.12758745e+02
525             	3.12758775e+02
526             	3.12758804e+02
527             	3.12758833e+02
528             	3.12758862e+02
529             	3.12758890e+02
530             	3.12758914e+02
531             	3.12758938e+02
532             	3.12758962e+02
533             	3.12758986e+02
534             	3.12759011e+02
535             	3.12759036e+02
536             	3.12759064e+02
537             	3.12759090e+02
538             	3.12759118e+02
539             	3.12759147e+02
540             	3.12759174e+02
541             	3.12759203e+02
542             	3.12759230e+02
543             	3.12759258e+02
544             	3.12759284e+02
545             	3.12759309e+02
546             	3.12759333e+02
547             	3.12759356e+02
548             	3.12759378e+02
549             	3.12759400e+02
550             	3.12759421e+02
551             	3.12759442e+02
552             	3.12759463e+02
553             	3.12759484e+02
554             	3.12759504e+02
555             	3.12759523e+02
556             	3.12759541e+02
557             	3.12759559e+02
558             	3.12759575e+02
559             	3.12759590e+02
560             	3.12759604e+02
561             	3.12759617e+02
562             	3.12759630e+02
563             	3.12759642e+02
564             	3.12759654e+02
565             	3.12759666e+02
566             	3.12759678e+02
567             	3.12759690e+02
568             	3.12759703e+02
569             	3.12759715e+02
570             	3.12759728e+02
571             	3.12759740e+02
572             	3.12759752e+02
573             	3.12759764e+02
574             	3.12759776e+02
575             	3.12759787e+02
576             	3.12759797e+02
577             	3.12759808e+02
578             	3.12759819e+02
579             	3.12759830e+02
580             	3.12759841e+02
581             	3.12759851e+02
582             	3.12759863e+02
583             	3.12759875e+02
584             	3.12759887e+02
585             	3.12759898e+02
586             	3.12759909e+02
587             	3.12759921e+02
588             	3.12759933e+02
589             	3.12759945e+02
590             	3.12759956e+02
591             	3.12759965e+02
592             	3.12759976e+02
593             	3.12759985e+02
594             	3.12759993e+02
595             	3.12760001e+02
596             	3.12760008e+02
597             	3.12760016e+02
598             	3.12760023e+02
599             	3.12760030e+02
600             	3.12760037e+02
601             	3.12760044e+02
602             	3.12760051e+02
603             	3.12760060e+02
604             	3.12760070e+02
605             	3.12760079e+02
606             	3.12760088e+02
607             	3.12760100e+02
608             	3.12760110e+02
609             	3.12760120e+02
610             	3.12760128e+02
611             	3.12760137e+02
612             	3.12760144e+02
613             	3.12760152e+02
614             	3.12760158e+02
615             	3.12760164e+02
616             	3.12760170e+02
617             	3.12760175e+02
618             	3.12760181e+02
619             	3.12760187e+02
620             	3.12760193e+02
621             	3.12760198e+02
622             	3.12760203e+02
623             	3.12760209e+02
624             	3.12760214e+02
625             	3.12760219e+02
626             	3.12760223e+02
627             	3.12760227e+02
628             	3.12760232e+02
629             	3.12760236e+02
630             	3.12760241e+02
631             	3.12760246e+02
632             	3.12760251e+02
633             	3.12760257e+02
634             	3.12760263e+02
635             	3.12760270e+02
636             	3.12760276e+02
637             	3.12760282e+02
638             	3.12760289e+02
639             	3.12760294e+02
640             	3.12760300e+02
641             	3.12760304e+02
642             	3.12760308e+02
643             	3.12760311e+02
644             	3.12760313e+02
645             	3.12760314e+02
646             	3.12760315e+02
647             	3.12760316e+02
648             	3.12760316e+02
649             	3.12760317e+02
650             	3.12760318e+02
651             	3.12760320e+02
652             	3.12760322e+02
653             	3.12760326e+02
654             	3.12760330e+02
655             	3.12760335e+02
656             	3.12760340e+02
657             	3.12760345e+02
658             	3.12760350e+02
659             	3.12760355e+02
660             	3.12760359e+02
661             	3.12760363e+02
662             	3.12760366e+02
663             	3.12760370e+02
664             	3.12760374e+02
665             	3.12760378e+02
666             	3.12760381e+02
667             	3.12760385e+02
668             	3.12760390e+02
669             	3.12760394e+02
670             	3.12760398e+02
671             	3.12760402e+02
672             	3.12760406e+02
673             	3.12760410e+02
674             	3.12760414e+02
675             	3.12760418e+02
676             	3.12760421e+02
677             	3.12760424e+02
678             	3.12760428e+02
679             	3.12760430e+02
680             	3.12760433e+02
681             	3.12760435e+02
682             	3.12760438e+02
683             	3.12760440e+02
684             	3.12760442e+02
685             	3.12760444e+02
686             	3.12760446e+02
687             	3.12760448e+02
688             	3.12760450e+02
689             	3.12760452e+02
690             	3.12760454e+02
691             	3.12760456e+02
692             	3.12760458e+02
693             	3.12760461e+02
694             	3.12760463e+02
695             	3.12760466e+02
696             	3.12760469e+02
697             	3.12760473e+02
698             	3.12760476e+02
699             	3.12760480e+02
700             	3.12760483e+02
701             	3.12760486e+02
702             	3.12760489e+02
703             	3.12760492e+02
704             	3.12760496e+02
705             	3.12760498e+02
706             	3.12760501e+02
707             	3.12760503e+02
708             	3.12760506e+02
709             	3.12760508e+02
710             	3.12760509e+02
711             	3.12760510e+02
712             	3.12760511e+02
713             	3.12760513e+02
714             	3.12760514e+02
715             	3.12760515e+02
716             	3.12760517e+02
717             	3.12760518e+02
718             	3.12760521e+02
719             	3.12760523e+02
720             	3.12760526e+02
721             	3.12760528e+02
722             	3.12760531e+02
723             	3.12760535e+02
724             	3.12760538e+02
725             	3.12760541e+02
726             	3.12760544e+02
727             	3.12760548e+02
728             	3.12760551e+02
729             	3.12760555e+02
730             	3.12760558e+02
731             	3.12760561e+02
732             	3.12760563e+02
733             	3.12760565e+02
734             	3.12760567e+02
735             	3.12760568e+02
736             	3.12760568e+02
737             	3.12760569e+02
738             	3.12760569e+02
739             	3.12760568e+02
740             	3.12760568e+02
741             	3.12760567e+02
742             	3.12760567e+02
743             	3.12760566e+02
744             	3.12760566e+02
745             	3.12760565e+02
746             	3.12760565e+02
747             	3.12760565e+02
748             	3.12760566e+02
749             	3.12760566e+02
750             	3.12760567e+02
751             	3.12760567e+02
752             	3.12760568e+02
753             	3.12760569e+02
754             	3.12760569e+02
755             	3.12760570e+02
756             	3.12760571e+02
757             	3.12760573e+02
758             	3.12760574e+02
759             	3.12760576e+02
760             	3.12760578e+02
761             	3.12760579e+02
762             	3.12760581e+02
763             	3.12760583e+02
764             	3.12760585e+02
765             	3.12760587e+02
766             	3.12760588e+02
767             	3.12760589e+02
768             	3.12760590e+02
769             	3.12760591e+02
770             	3.12760592e+02
771             	3.12760593e+02
772             	3.12760594e+02
773             	3.12760596e+02
774             	3.12760597e+02
775             	3.12760598e+02
776             	3.12760599e+02
777             	3.12760600e+02
778             	3.12760601e+02
779             	3.12760603e+02
780             	3.12760604e+02
781             	3.12760605e+02
782             	3.12760605e+02
783             	3.12760606e+02
784             	3.12760605e+02
785             	3.12760605e+02
786             	3.12760605e+02
787             	3.12760605e+02
788             	3.12760606e+02
789             	3.12760608e+02
790             	3.12760609e+02
791             	3.12760611e+02
792             	3.12760613e+02
793             	3.12760615e+02
794             	3.12760618e+02
795             	3.12760620e+02
796             	3.12760622e+02
797             	3.12760623e+02
798             	3.12760624e+02
799             	3.12760625e+02
800             	3.12760625e+02
801             	3.12760624e+02
802             	3.12760623e+02
803             	3.12760620e+02
804             	3.12760616e+02
805             	3.12760612e+02
806             	3.12760608e+02
807             	3.12760605e+02
808             	3.12760602e+02
809             	3.12760600e+02
810             	3.12760599e+02
811             	3.12760598e+02
812             	3.12760599e+02
813             	3.12760599e+02
814             	3.12760601e+02
815             	3.12760602e+02
816             	3.12760603e+02
817             	3.12760605e+02
818             	3.12760605e+02
819             	3.12760605e+02
820             	3.12760605e+02
821             	3.12760605e+02
822             	3.12760604e+02
823             	3.12760604e+02
824             	3.12760603e+02
825             	3.12760603e+02
826             	3.12760603e+02
827             	3.12760603e+02
828             	3.12760604e+02
829             	3.12760605e+02
830             	3.12760607e+02
831             	3.12760609e+02
832             	3.12760610e+02
833             	3.12760611e+02
834             	3.12760613e+02
835             	3.12760613e+02
836             	3.12760614e+02
837             	3.12760614e+02
838             	3.12760614e+02
839             	3.12760614e+02
840             	3.12760614e+02
841             	3.12760615e+02
842             	3.12760615e+02
843             	3.12760615e+02
844             	3.12760617e+02
845             	3.12760618e+02
846             	3.12760619e+02
847             	3.12760620e+02
848             	3.12760621e+02
849             	3.12760621e+02
850             	3.12760620e+02
851             	3.12760619e+02
852             	3.12760618e+02
853             	3.12760616e+02
854             	3.12760613e+02
855             	3.12760611e+02
856             	3.12760609e+02
857             	3.12760608e+02
858             	3.12760607e+02
859             	3.12760607e+02
860             	3.12760608e+02
861             	3.12760610e+02
862             	3.12760612e+02
863             	3.12760614e+02
864             	3.12760617e+02
865             	3.12760619e+02
866             	3.12760620e+02
867             	3.12760622e+02
868             	3.12760623e+02
869             	3.12760624e+02
870             	3.12760624e+02
871             	3.12760623e+02
872             	3.12760623e+02
873             	3.12760623e+02
874             	3.12760623e+02
875             	3.12760624e+02
876             	3.12760624e+02
877             	3.12760625e+02
878             	3.12760626e+02
879             	3.12760627e+02
880             	3.12760628e+02
881             	3.12760629e+02
882             	3.12760630e+02
883             	3.12760630e+02
884             	3.12760631e+02
885             	3.12760631e+02
886             	3.12760631e+02
887             	3.12760631e+02
888             	3.12760631e+02
889             	3.12760631e+02
890             	3.12760631e+02
891             	3.12760631e+02
892             	3.12760632e+02
893             	3.12760632e+02
894             	3.12760633e+02
895             	3.12760633e+02
896             	3.12760634e+02
897             	3.12760634e+02
898             	3.12760635e+02
899             	3.12760636e+02
900             	3.12760636e+02
901             	3.12760637e+02
902             	3.12760637e+02
903             	3.12760638e+02
904             	3.12760638e+02
905             	3.12760638e+02
906             	3.12760638e+02
907             	3.12760639e+02
908             	3.12760639e+02
909             	3.12760639e+02
910             	3.12760639e+02
911             	3.12760640e+02
912             	3.12760640e+02
913             	3.12760640e+02
914             	3.12760641e+02
915             	3.12760641e+02
916             	3.12760642e+02
917             	3.12760642e+02
918             	3.12760642e+02
919             	3.12760643e+02
920             	3.12760643e+02
921             	3.12760644e+02
922             	3.12760644e+02
923             	3.12760644e+02
924             	3.12760643e+02
925             	3.12760643e+02
926             	3.12760643e+02
927             	3.12760642e+02
928             	3.12760642e+02
929             	3.12760641e+02
930             	3.12760641e+02
931             	3.12760641e+02
932             	3.12760641e+02
933             	3.12760642e+02