# Region        : cellZone pcb
# Cells         : 658
# Volume        : 1.15262762e+00
# Time          	volAverage(T)
1               	3.00007955e+02
2               	3.00022829e+02
3               	3.00043347e+02
4               	3.00067496e+02
5               	3.00088526e+02
6               	3.00111759e+02
7               	3.00135585e+02
8               	3.00161625e+02
9               	3.00194637e+02
10              	3.00237719e+02
11              	3.00280181e+02
12              	3.00322208e+02
13              	3.00366452e+02
14              	3.00412405e+02
15              	3.00459841e+02
16              	3.00506235e+02
17              	3.00550994e+02
18              	3.00596494e+02
19              	3.00640147e+02
20              	3.00683670e+02
21              	3.00727555e+02
22              	3.00769140e+02
23              	3.00812387e+02
24              	3.00858586e+02
25              	3.00906466e+02
26              	3.00955997e+02
27              	3.01005094e+02
28              	3.01058557e+02
29              	3.01115232e+02
30              	3.01171400e+02
31              	3.01225945e+02
32              	3.01277223e+02
33              	3.01330630e+02
34              	3.01385598e+02
35              	3.01435418e+02
36              	3.01479500e+02
37              	3.01521492e+02
38              	3.01563792e+02
39              	3.01608231e+02
40              	3.01653768e+02
41              	3.01706604e+02
42              	3.01756616e+02
43              	3.01801367e+02
44              	3.01846954e+02
45              	3.01892635e+02
46              	3.01937788e+02
47              	3.01985003e+02
48              	3.02034658e+02
49              	3.02085616e+02
50              	3.02130762e+02
51              	3.02170792e+02
52              	3.02210076e+02
53              	3.02255222e+02
54              	3.02301962e+02
55              	3.02348635e+02
56              	3.02396960e+02
57              	3.02443860e+02
58              	3.02486970e+02
59              	3.02529332e+02
60              	3.02570503e+02
61              	3.02611911e+02
62              	3.02654846e+02
63              	3.02700600e+02
64              	3.02743645e+02
65              	3.02790442e+02
66              	3.02839900e+02
67              	3.02885082e+02
68              	3.02926167e+02
69              	3.02962632e+02
70              	3.02999390e+02
71              	3.03035217e+02
72              	3.03073029e+02
73              	3.03106124e+02
74              	3.03147205e+02
75              	3.03191675e+02
76              	3.03229197e+02
77              	3.03271505e+02
78              	3.03312917e+02
79              	3.03353156e+02
80              	3.03399784e+02
81              	3.03446857e+02
82              	3.03489943e+02
83              	3.03528031e+02
84              	3.03561080e+02
85              	3.03599429e+02
86              	3.03638347e+02
87              	3.03668221e+02
88              	3.03699452e+02
89              	3.03735914e+02
90              	3.03770498e+02
91              	3.03806827e+02
92              	3.03844532e+02
93              	3.03883721e+02
94              	3.03925706e+02
95              	3.03967192e+02
96              	3.04008625e+02
97              	3.04045885e+02
98              	3.04077831e+02
99              	3.04107490e+02
100             	3.04141130e+02
101             	3.04177722e+02
102             	3.04209808e+02
103             	3.04245403e+02
104             	3.04282555e+02
105             	3.04312166e+02
106             	3.04339004e+02
107             	3.04370913e+02
108             	3.04409032e+02
109             	3.04442766e+02
110             	3.04473041e+02
111             	3.04500534e+02
112             	3.04525849e+02
113             	3.04551022e+02
114             	3.04577194e+02
115             	3.04602265e+02
116             	3.04625842e+02
117             	3.04649665e+02
118             	3.04673875e+02
119             	3.04701151e+02
120             	3.04731775e+02
121             	3.04760718e+02
122             	3.04787586e+02
123             	3.04817967e+02
124             	3.04851962e+02
125             	3.04885460e+02
126             	3.04916763e+02
127             	3.04945256e+02
128             	3.04970865e+02
129             	3.04995434e+02
130             	3.05021134e+02
131             	3.05047555e+02
132             	3.05071139e+02
133             	3.05095152e+02
134             	3.05120914e+02
135             	3.05146348e+02
136             	3.05174226e+02
137             	3.05199745e+02
138             	3.05225139e+02
139             	3.05250779e+02
140             	3.05276978e+02
141             	3.05305637e+02
142             	3.05336573e+02
143             	3.05370189e+02
144             	3.05407159e+02
145             	3.05440559e+02
146             	3.05472105e+02
147             	3.05503060e+02
148             	3.05535678e+02
149             	3.05564131e+02
150             	3.05589895e+02
151             	3.05614209e+02
152             	3.05638532e+02
153             	3.05663557e+02
154             	3.05689248e+02
155             	3.05717352e+02
156             	3.05744991e+02
157             	3.05773704e+02
158             	3.05801302e+02
159             	3.05827985e+02
160             	3.05852636e+02
161             	3.05878793e+02
162             	3.05904508e+02
163             	3.05931053e+02
164             	3.05957297e+02
165             	3.05983714e+02
166             	3.06013190e+02
167             	3.06044020e+02
168             	3.06076511e+02
169             	3.06109171e+02
170             	3.06141276e+02
171             	3.06172473e+02
172             	3.06202480e+02
173             	3.06229181e+02
174             	3.06251491e+02
175             	3.06272421e+02
176             	3.06293859e+02
177             	3.06316880e+02
178             	3.06339737e+02
179             	3.06363117e+02
180             	3.06387518e+02
181             	3.06412088e+02
182             	3.06436338e+02
183             	3.06460662e+02
184             	3.06484846e+02
185             	3.06510259e+02
186             	3.06536072e+02
187             	3.06562737e+02
188             	3.06590715e+02
189             	3.06619660e+02
190             	3.06646664e+02
191             	3.06673471e+02
192             	3.06698214e+02
193             	3.06719136e+02
194             	3.06737566e+02
195             	3.06755843e+02
196             	3.06774447e+02
197             	3.06792693e+02
198             	3.06810811e+02
199             	3.06830245e+02
200             	3.06850353e+02
201             	3.06871036e+02
202             	3.06892157e+02
203             	3.06913426e+02
204             	3.06933920e+02
205             	3.06954479e+02
206             	3.06976358e+02
207             	3.06998475e+02
208             	3.07019754e+02
209             	3.07041114e+02
210             	3.07062795e+02
211             	3.07084247e+02
212             	3.07104965e+02
213             	3.07124988e+02
214             	3.07144184e+02
215             	3.07162310e+02
216             	3.07179391e+02
217             	3.07195581e+02
218             	3.07211884e+02
219             	3.07227712e+02
220             	3.07242834e+02
221             	3.07257929e+02
222             	3.07273129e+02
223             	3.07288884e+02
224             	3.07305351e+02
225             	3.07322472e+02
226             	3.07340048e+02
227             	3.07357752e+02
228             	3.07375117e+02
229             	3.07393346e+02
230             	3.07411995e+02
231             	3.07430864e+02
232             	3.07450584e+02
233             	3.07469737e+02
234             	3.07488731e+02
235             	3.07506755e+02
236             	3.07523220e+02
237             	3.07539031e+02
238             	3.07554464e+02
239             	3.07569266e+02
240             	3.07583729e+02
241             	3.07598223e+02
242             	3.07613015e+02
243             	3.07626997e+02
244             	3.07640816e+02
245             	3.07654713e+02
246             	3.07668406e+02
247             	3.07682221e+02
248             	3.07695893e+02
249             	3.07709878e+02
250             	3.07724329e+02
251             	3.07738518e+02
252             	3.07753107e+02
253             	3.07768284e+02
254             	3.07783797e+02
255             	3.07799108e+02
256             	3.07814052e+02
257             	3.07828787e+02
258             	3.07843323e+02
259             	3.07857814e+02
260             	3.07872099e+02
261             	3.07885988e+02
262             	3.07899625e+02
263             	3.07912954e+02
264             	3.07925992e+02
265             	3.07938768e+02
266             	3.07951539e+02
267             	3.07963865e+02
268             	3.07975959e+02
269             	3.07987897e+02
270             	3.07999807e+02
271             	3.08011666e+02
272             	3.08023537e+02
273             	3.08035526e+02
274             	3.08047555e+02
275             	3.08059790e+02
276             	3.08072066e+02
277             	3.08084431e+02
278             	3.08096819e+02
279             	3.08109255e+02
280             	3.08121536e+02
281             	3.08134002e+02
282             	3.08146511e+02
283             	3.08158814e+02
284             	3.08170848e+02
285             	3.08182628e+02
286             	3.08194125e+02
287             	3.08205276e+02
288             	3.08216009e+02
289             	3.08226369e+02
290             	3.08236575e+02
291             	3.08246833e+02
292             	3.08256756e+02
293             	3.08266511e+02
294             	3.08276245e+02
295             	3.08286145e+02
296             	3.08296060e+02
297             	3.08306106e+02
298             	3.08316390e+02
299             	3.08326755e+02
300             	3.08337175e+02
301             	3.08347713e+02
302             	3.08358312e+02
303             	3.08368709e+02
304             	3.08379146e+02
305             	3.08389782e+02
306             	3.08400365e+02
307             	3.08410768e+02
308             	3.08421055e+02
309             	3.08431038e+02
310             	3.08440867e+02
311             	3.08450456e+02
312             	3.08459764e+02
313             	3.08468756e+02
314             	3.08477417e+02
315             	3.08485785e+02
316             	3.08493818e+02
317             	3.08501757e+02
318             	3.08509410e+02
319             	3.08516921e+02
320             	3.08524340e+02
321             	3.08531597e+02
322             	3.08538756e+02
323             	3.08545772e+02
324             	3.08552832e+02
325             	3.08559972e+02
326             	3.08567100e+02
327             	3.08574310e+02
328             	3.08581679e+02
329             	3.08589046e+02
330             	3.08596458e+02
331             	3.08604053e+02
332             	3.08611762e+02
333             	3.08619568e+02
334             	3.08627505e+02
335             	3.08635486e+02
336             	3.08643590e+02
337             	3.08651698e+02
338             	3.08659706e+02
339             	3.08667704e+02
340             	3.08675546e+02
341             	3.08683229e+02
342             	3.08690783e+02
343             	3.08698092e+02
344             	3.08705208e+02
345             	3.08712279e+02
346             	3.08719168e+02
347             	3.08725761e+02
348             	3.08732175e+02
349             	3.08738376e+02
350             	3.08744466e+02
351             	3.08750395e+02
352             	3.08756208e+02
353             	3.08761838e+02
354             	3.08767401e+02
355             	3.08772955e+02
356             	3.08778465e+02
357             	3.08783973e+02
358             	3.08789498e+02
359             	3.08795061e+02
360             	3.08800658e+02
361             	3.08806347e+02
362             	3.08812076e+02
363             	3.08817844e+02
364             	3.08823690e+02
365             	3.08829609e+02
366             	3.08835494e+02
367             	3.08841445e+02
368             	3.08847454e+02
369             	3.08853480e+02
370             	3.08859554e+02
371             	3.08865546e+02
372             	3.08871506e+02
373             	3.08877445e+02
374             	3.08883299e+02
375             	3.08889053e+02
376             	3.08894633e+02
377             	3.08900071e+02
378             	3.08905382e+02
379             	3.08910483e+02
380             	3.08915413e+02
381             	3.08920208e+02
382             	3.08924824e+02
383             	3.08929383e+02
384             	3.08933870e+02
385             	3.08938196e+02
386             	3.08942361e+02
387             	3.08946437e+02
388             	3.08950450e+02
389             	3.08954431e+02
390             	3.08958385e+02
391             	3.08962239e+02
392             	3.08966123e+02
393             	3.08970006e+02
394             	3.08973858e+02
395             	3.08977716e+02
396             	3.08981580e+02
397             	3.08985504e+02
398             	3.08989463e+02
399             	3.08993420e+02
400             	3.08997402e+02
401             	3.09001511e+02
402             	3.09005504e+02
403             	3.09009467e+02
404             	3.09013466e+02
405             	3.09017497e+02
406             	3.09021525e+02
407             	3.09025535e+02
408             	3.09029551e+02
409             	3.09033525e+02
410             	3.09037449e+02
411             	3.09041326e+02
412             	3.09045169e+02
413             	3.09048964e+02
414             	3.09052687e+02
415             	3.09056301e+02
416             	3.09059849e+02
417             	3.09063338e+02
418             	3.09066751e+02
419             	3.09070103e+02
420             	3.09073414e+02
421             	3.09076709e+02
422             	3.09079969e+02
423             	3.09083204e+02
424             	3.09086416e+02
425             	3.09089622e+02
426             	3.09092791e+02
427             	3.09095922e+02
428             	3.09099030e+02
429             	3.09102123e+02
430             	3.09105217e+02
431             	3.09108290e+02
432             	3.09111355e+02
433             	3.09114407e+02
434             	3.09117440e+02
435             	3.09120471e+02
436             	3.09123481e+02
437             	3.09126459e+02
438             	3.09129401e+02
439             	3.09132309e+02
440             	3.09135158e+02
441             	3.09137977e+02
442             	3.09140726e+02
443             	3.09143440e+02
444             	3.09146116e+02
445             	3.09148736e+02
446             	3.09151336e+02
447             	3.09153897e+02
448             	3.09156436e+02
449             	3.09158959e+02
450             	3.09161463e+02
451             	3.09163942e+02
452             	3.09166403e+02
453             	3.09168852e+02
454             	3.09171272e+02
455             	3.09173661e+02
456             	3.09176033e+02
457             	3.09178385e+02
458             	3.09180733e+02
459             	3.09183073e+02
460             	3.09185396e+02
461             	3.09187719e+02
462             	3.09190026e+02
463             	3.09192317e+02
464             	3.09194591e+02
465             	3.09196834e+02
466             	3.09199055e+02
467             	3.09201253e+02
468             	3.09203420e+02
469             	3.09205567e+02
470             	3.09207680e+02
471             	3.09209770e+02
472             	3.09211825e+02
473             	3.09213839e+02
474             	3.09215841e+02
475             	3.09217803e+02
476             	3.09219740e+02
477             	3.09221658e+02
478             	3.09223551e+02
479             	3.09225417e+02
480             	3.09227278e+02
481             	3.09229116e+02
482             	3.09230919e+02
483             	3.09232709e+02
484             	3.09234489e+02
485             	3.09236265e+02
486             	3.09238039e+02
487             	3.09239798e+02
488             	3.09241554e+02
489             	3.09243306e+02
490             	3.09245046e+02
491             	3.09246784e+02
492             	3.09248516e+02
493             	3.09250260e+02
494             	3.09252012e+02
495             	3.09253753e+02
496             	3.09255499e+02
497             	3.09257238e+02
498             	3.09258957e+02
499             	3.09260669e+02
500             	3.09262371e+02
501             	3.09264061e+02
502             	3.09265729e+02
503             	3.09267375e+02
504             	3.09268998e+02
505             	3.09270592e+02
506             	3.09272161e+02
507             	3.09273706e+02
508             	3.09275227e+02
509             	3.09276720e+02
510             	3.09278205e+02
511             	3.09279672e+02
512             	3.09281123e+02
513             	3.09282559e+02
514             	3.09283982e+02
515             	3.09285388e+02
516             	3.09286767e+02
517             	3.09288135e+02
518             	3.09289484e+02
519             	3.09290823e+02
520             	3.09292153e+02
521             	3.09293472e+02
522             	3.09294782e+02
523             	3.09296083e+02
524             	3.09297371e+02
525             	3.09298640e+02
526             	3.09299897e+02
527             	3.09301148e+02
528             	3.09302376e+02
529             	3.09303588e+02
530             	3.09304784e+02
531             	3.09305966e+02
532             	3.09307137e+02
533             	3.09308291e+02
534             	3.09309427e+02
535             	3.09310542e+02
536             	3.09311636e+02
537             	3.09312712e+02
538             	3.09313771e+02
539             	3.09314810e+02
540             	3.09315843e+02
541             	3.09316860e+02
542             	3.09317866e+02
543             	3.09318866e+02
544             	3.09319849e+02
545             	3.09320838e+02
546             	3.09321817e+02
547             	3.09322798e+02
548             	3.09323773e+02
549             	3.09324731e+02
550             	3.09325692e+02
551             	3.09326646e+02
552             	3.09327602e+02
553             	3.09328550e+02
554             	3.09329491e+02
555             	3.09330435e+02
556             	3.09331370e+02
557             	3.09332306e+02
558             	3.09333238e+02
559             	3.09334165e+02
560             	3.09335088e+02
561             	3.09336015e+02
562             	3.09336939e+02
563             	3.09337861e+02
564             	3.09338780e+02
565             	3.09339695e+02
566             	3.09340603e+02
567             	3.09341503e+02
568             	3.09342402e+02
569             	3.09343295e+02
570             	3.09344181e+02
571             	3.09345057e+02
572             	3.09345925e+02
573             	3.09346789e+02
574             	3.09347641e+02
575             	3.09348486e+02
576             	3.09349327e+02
577             	3.09350153e+02
578             	3.09350967e+02
579             	3.09351769e+02
580             	3.09352559e+02
581             	3.09353338e+02
582             	3.09354106e+02
583             	3.09354861e+02
584             	3.09355604e+02
585             	3.09356329e+02
586             	3.09357048e+02
587             	3.09357752e+02
588             	3.09358449e+02
589             	3.09359128e+02
590             	3.09359795e+02
591             	3.09360450e+02
592             	3.09361082e+02
593             	3.09361707e+02
594             	3.09362317e+02
595             	3.09362919e+02
596             	3.09363517e+02
597             	3.09364102e+02
598             	3.09364684e+02
599             	3.09365252e+02
600             	3.09365830e+02
601             	3.09366394e+02
602             	3.09366952e+02
603             	3.09367513e+02
604             	3.09368074e+02
605             	3.09368639e+02
606             	3.09369213e+02
607             	3.09369785e+02
608             	3.09370359e+02
609             	3.09370935e+02
610             	3.09371507e+02
611             	3.09372081e+02
612             	3.09372648e+02
613             	3.09373209e+02
614             	3.09373764e+02
615             	3.09374310e+02
616             	3.09374854e+02
617             	3.09375392e+02
618             	3.09375915e+02
619             	3.09376432e+02
620             	3.09376938e+02
621             	3.09377440e+02
622             	3.09377937e+02
623             	3.09378425e+02
624             	3.09378902e+02
625             	3.09379370e+02
626             	3.09379830e+02
627             	3.09380287e+02
628             	3.09380740e+02
629             	3.09381189e+02
630             	3.09381636e+02
631             	3.09382076e+02
632             	3.09382516e+02
633             	3.09382958e+02
634             	3.09383399e+02
635             	3.09383842e+02
636             	3.09384287e+02
637             	3.09384731e+02
638             	3.09385177e+02
639             	3.09385629e+02
640             	3.09386085e+02
641             	3.09386542e+02
642             	3.09386998e+02
643             	3.09387452e+02
644             	3.09387908e+02
645             	3.09388366e+02
646             	3.09388819e+02
647             	3.09389268e+02
648             	3.09389714e+02
649             	3.09390150e+02
650             	3.09390576e+02
651             	3.09390996e+02
652             	3.09391406e+02
653             	3.09391808e+02
654             	3.09392201e+02
655             	3.09392586e+02
656             	3.09392964e+02
657             	3.09393335e+02
658             	3.09393700e+02
659             	3.09394059e+02
660             	3.09394414e+02
661             	3.09394761e+02
662             	3.09395102e+02
663             	3.09395439e+02
664             	3.09395771e+02
665             	3.09396098e+02
666             	3.09396422e+02
667             	3.09396743e+02
668             	3.09397062e+02
669             	3.09397377e+02
670             	3.09397686e+02
671             	3.09397991e+02
672             	3.09398294e+02
673             	3.09398593e+02
674             	3.09398890e+02
675             	3.09399184e+02
676             	3.09399473e+02
677             	3.09399759e+02
678             	3.09400042e+02
679             	3.09400318e+02
680             	3.09400589e+02
681             	3.09400858e+02
682             	3.09401121e+02
683             	3.09401382e+02
684             	3.09401643e+02
685             	3.09401899e+02
686             	3.09402155e+02
687             	3.09402410e+02
688             	3.09402660e+02
689             	3.09402908e+02
690             	3.09403155e+02
691             	3.09403402e+02
692             	3.09403649e+02
693             	3.09403896e+02
694             	3.09404141e+02
695             	3.09404387e+02
696             	3.09404634e+02
697             	3.09404878e+02
698             	3.09405122e+02
699             	3.09405364e+02
700             	3.09405606e+02
701             	3.09405848e+02
702             	3.09406093e+02
703             	3.09406337e+02
704             	3.09406581e+02
705             	3.09406824e+02
706             	3.09407066e+02
707             	3.09407305e+02
708             	3.09407542e+02
709             	3.09407776e+02
710             	3.09408010e+02
711             	3.09408243e+02
712             	3.09408475e+02
713             	3.09408706e+02
714             	3.09408936e+02
715             	3.09409163e+02
716             	3.09409386e+02
717             	3.09409608e+02
718             	3.09409828e+02
719             	3.09410043e+02
720             	3.09410257e+02
721             	3.09410468e+02
722             	3.09410675e+02
723             	3.09410880e+02
724             	3.09411081e+02
725             	3.09411279e+02
726             	3.09411474e+02
727             	3.09411665e+02
728             	3.09411852e+02
729             	3.09412039e+02
730             	3.09412221e+02
731             	3.09412402e+02
732             	3.09412583e+02
733             	3.09412759e+02
734             	3.09412934e+02
735             	3.09413108e+02
736             	3.09413276e+02
737             	3.09413442e+02
738             	3.09413605e+02
739             	3.09413766e+02
740             	3.09413923e+02
741             	3.09414078e+02
742             	3.09414229e+02
743             	3.09414377e+02
744             	3.09414525e+02
745             	3.09414669e+02
746             	3.09414811e+02
747             	3.09414950e+02
748             	3.09415084e+02
749             	3.09415217e+02
750             	3.09415348e+02
751             	3.09415475e+02
752             	3.09415601e+02
753             	3.09415727e+02
754             	3.09415853e+02
755             	3.09415978e+02
756             	3.09416105e+02
757             	3.09416231e+02
758             	3.09416357e+02
759             	3.09416482e+02
760             	3.09416608e+02
761             	3.09416733e+02
762             	3.09416859e+02
763             	3.09416984e+02
764             	3.09417109e+02
765             	3.09417236e+02
766             	3.09417362e+02
767             	3.09417490e+02
768             	3.09417620e+02
769             	3.09417749e+02
770             	3.09417879e+02
771             	3.09418010e+02
772             	3.09418140e+02
773             	3.09418270e+02
774             	3.09418401e+02
775             	3.09418531e+02
776             	3.09418661e+02
777             	3.09418791e+02
778             	3.09418921e+02
779             	3.09419050e+02
780             	3.09419177e+02
781             	3.09419301e+02
782             	3.09419425e+02
783             	3.09419550e+02
784             	3.09419672e+02
785             	3.09419792e+02
786             	3.09419913e+02
787             	3.09420032e+02
788             	3.09420149e+02
789             	3.09420265e+02
790             	3.09420376e+02
791             	3.09420486e+02
792             	3.09420595e+02
793             	3.09420701e+02
794             	3.09420805e+02
795             	3.09420909e+02
796             	3.09421009e+02
797             	3.09421108e+02
798             	3.09421206e+02
799             	3.09421301e+02
800             	3.09421394e+02
801             	3.09421486e+02
802             	3.09421578e+02
803             	3.09421669e+02
804             	3.09421758e+02
805             	3.09421845e+02
806             	3.09421931e+02
807             	3.09422016e+02
808             	3.09422099e+02
809             	3.09422181e+02
810             	3.09422262e+02
811             	3.09422340e+02
812             	3.09422417e+02
813             	3.09422494e+02
814             	3.09422569e+02
815             	3.09422641e+02
816             	3.09422712e+02
817             	3.09422779e+02
818             	3.09422845e+02
819             	3.09422909e+02
820             	3.09422973e+02
821             	3.09423036e+02
822             	3.09423100e+02
823             	3.09423163e+02
824             	3.09423226e+02
825             	3.09423289e+02
826             	3.09423351e+02
827             	3.09423413e+02
828             	3.09423474e+02
829             	3.09423535e+02
830             	3.09423597e+02
831             	3.09423660e+02
832             	3.09423723e+02
833             	3.09423786e+02
834             	3.09423850e+02
835             	3.09423916e+02
836             	3.09423982e+02
837             	3.09424050e+02
838             	3.09424118e+02
839             	3.09424186e+02
840             	3.09424255e+02
841             	3.09424324e+02
842             	3.09424393e+02
843             	3.09424464e+02
844             	3.09424535e+02
845             	3.09424606e+02
846             	3.09424679e+02
847             	3.09424750e+02
848             	3.09424820e+02
849             	3.09424890e+02
850             	3.09424961e+02
851             	3.09425031e+02
852             	3.09425103e+02
853             	3.09425173e+02
854             	3.09425240e+02
855             	3.09425306e+02
856             	3.09425368e+02
857             	3.09425428e+02
858             	3.09425488e+02
859             	3.09425547e+02
860             	3.09425603e+02
861             	3.09425657e+02
862             	3.09425709e+02
863             	3.09425760e+02
864             	3.09425809e+02
865             	3.09425856e+02
866             	3.09425902e+02
867             	3.09425947e+02
868             	3.09425993e+02
869             	3.09426039e+02
870             	3.09426086e+02
871             	3.09426132e+02
872             	3.09426178e+02
873             	3.09426226e+02
874             	3.09426272e+02
875             	3.09426318e+02
876             	3.09426364e+02
877             	3.09426408e+02
878             	3.09426451e+02
879             	3.09426495e+02
880             	3.09426536e+02
881             	3.09426578e+02
882             	3.09426619e+02
883             	3.09426658e+02
884             	3.09426697e+02
885             	3.09426735e+02
886             	3.09426774e+02
887             	3.09426810e+02
888             	3.09426847e+02
889             	3.09426883e+02
890             	3.09426916e+02
891             	3.09426950e+02
892             	3.09426983e+02
893             	3.09427015e+02
894             	3.09427047e+02
895             	3.09427079e+02
896             	3.09427109e+02
897             	3.09427139e+02
898             	3.09427170e+02
899             	3.09427201e+02
900             	3.09427234e+02
901             	3.09427266e+02
902             	3.09427298e+02
903             	3.09427331e+02
904             	3.09427365e+02
905             	3.09427399e+02
906             	3.09427434e+02
907             	3.09427470e+02
908             	3.09427507e+02
909             	3.09427545e+02
910             	3.09427585e+02
911             	3.09427626e+02
912             	3.09427668e+02
913             	3.09427709e+02
914             	3.09427751e+02
915             	3.09427793e+02
916             	3.09427836e+02
917             	3.09427880e+02
918             	3.09427923e+02
919             	3.09427964e+02
920             	3.09428004e+02
921             	3.09428044e+02
922             	3.09428084e+02
923             	3.09428122e+02
924             	3.09428160e+02
925             	3.09428196e+02
926             	3.09428230e+02
927             	3.09428263e+02
928             	3.09428296e+02
929             	3.09428327e+02
930             	3.09428358e+02
931             	3.09428389e+02
932             	3.09428419e+02
933             	3.09428449e+02