# Region        : cellZone fluid
# Cells         : 8984
# Volume        : 1.69310043e+01
# Time          	volAverage(T)
1               	2.99999886e+02
2               	2.99999892e+02
3               	3.00000247e+02
4               	3.00000833e+02
5               	3.00001143e+02
6               	3.00001580e+02
7               	3.00001934e+02
8               	3.00002307e+02
9               	3.00002840e+02
10              	3.00003389e+02
11              	3.00003887e+02
12              	3.00004480e+02
13              	3.00005386e+02
14              	3.00006470e+02
15              	3.00007660e+02
16              	3.00008610e+02
17              	3.00009356e+02
18              	3.00009993e+02
19              	3.00010777e+02
20              	3.00011541e+02
21              	3.00012194e+02
22              	3.00013308e+02
23              	3.00013792e+02
24              	3.00014540e+02
25              	3.00015379e+02
26              	3.00015964e+02
27              	3.00016648e+02
28              	3.00017409e+02
29              	3.00018045e+02
30              	3.00018870e+02
31              	3.00020077e+02
32              	3.00021646e+02
33              	3.00023324e+02
34              	3.00024693e+02
35              	3.00025629e+02
36              	3.00027208e+02
37              	3.00028129e+02
38              	3.00029052e+02
39              	3.00029995e+02
40              	3.00030967e+02
41              	3.00032124e+02
42              	3.00033204e+02
43              	3.00034661e+02
44              	3.00035978e+02
45              	3.00037313e+02
46              	3.00038574e+02
47              	3.00040144e+02
48              	3.00041477e+02
49              	3.00042727e+02
50              	3.00043343e+02
51              	3.00044105e+02
52              	3.00045392e+02
53              	3.00046587e+02
54              	3.00048622e+02
55              	3.00050338e+02
56              	3.00051618e+02
57              	3.00053358e+02
58              	3.00053694e+02
59              	3.00054972e+02
60              	3.00054754e+02
61              	3.00054908e+02
62              	3.00055641e+02
63              	3.00056586e+02
64              	3.00057614e+02
65              	3.00058768e+02
66              	3.00060944e+02
67              	3.00063065e+02
68              	3.00064508e+02
69              	3.00066285e+02
70              	3.00067857e+02
71              	3.00068816e+02
72              	3.00071325e+02
73              	3.00072299e+02
74              	3.00074413e+02
75              	3.00074991e+02
76              	3.00074746e+02
77              	3.00074940e+02
78              	3.00075260e+02
79              	3.00075545e+02
80              	3.00076928e+02
81              	3.00078463e+02
82              	3.00079755e+02
83              	3.00081295e+02
84              	3.00082545e+02
85              	3.00084531e+02
86              	3.00086016e+02
87              	3.00088537e+02
88              	3.00089894e+02
89              	3.00091474e+02
90              	3.00092525e+02
91              	3.00093855e+02
92              	3.00094552e+02
93              	3.00096795e+02
94              	3.00098460e+02
95              	3.00099054e+02
96              	3.00100347e+02
97              	3.00101595e+02
98              	3.00101668e+02
99              	3.00102697e+02
100             	3.00103628e+02
101             	3.00104392e+02
102             	3.00104450e+02
103             	3.00104844e+02
104             	3.00106445e+02
105             	3.00108228e+02
106             	3.00110008e+02
107             	3.00111643e+02
108             	3.00112997e+02
109             	3.00114673e+02
110             	3.00115818e+02
111             	3.00116973e+02
112             	3.00118499e+02
113             	3.00119065e+02
114             	3.00120064e+02
115             	3.00121487e+02
116             	3.00122988e+02
117             	3.00123842e+02
118             	3.00124632e+02
119             	3.00125342e+02
120             	3.00126364e+02
121             	3.00127761e+02
122             	3.00129171e+02
123             	3.00129933e+02
124             	3.00130406e+02
125             	3.00130514e+02
126             	3.00131534e+02
127             	3.00132580e+02
128             	3.00133221e+02
129             	3.00134410e+02
130             	3.00135713e+02
131             	3.00137006e+02
132             	3.00138412e+02
133             	3.00139690e+02
134             	3.00141208e+02
135             	3.00142488e+02
136             	3.00141963e+02
137             	3.00142695e+02
138             	3.00143152e+02
139             	3.00142949e+02
140             	3.00143169e+02
141             	3.00142898e+02
142             	3.00142961e+02
143             	3.00143575e+02
144             	3.00144707e+02
145             	3.00146242e+02
146             	3.00147176e+02
147             	3.00147864e+02
148             	3.00149960e+02
149             	3.00151506e+02
150             	3.00153277e+02
151             	3.00153207e+02
152             	3.00153447e+02
153             	3.00152664e+02
154             	3.00152902e+02
155             	3.00152380e+02
156             	3.00151498e+02
157             	3.00150757e+02
158             	3.00150203e+02
159             	3.00149549e+02
160             	3.00149244e+02
161             	3.00148865e+02
162             	3.00148531e+02
163             	3.00148145e+02
164             	3.00147751e+02
165             	3.00148353e+02
166             	3.00148921e+02
167             	3.00149532e+02
168             	3.00149651e+02
169             	3.00150342e+02
170             	3.00150808e+02
171             	3.00151779e+02
172             	3.00151570e+02
173             	3.00151567e+02
174             	3.00153150e+02
175             	3.00154147e+02
176             	3.00154652e+02
177             	3.00155221e+02
178             	3.00155885e+02
179             	3.00156658e+02
180             	3.00157661e+02
181             	3.00158553e+02
182             	3.00159113e+02
183             	3.00159381e+02
184             	3.00159377e+02
185             	3.00159543e+02
186             	3.00159798e+02
187             	3.00160471e+02
188             	3.00160333e+02
189             	3.00161207e+02
190             	3.00161344e+02
191             	3.00161830e+02
192             	3.00161721e+02
193             	3.00161841e+02
194             	3.00161858e+02
195             	3.00161809e+02
196             	3.00161626e+02
197             	3.00161467e+02
198             	3.00160840e+02
199             	3.00159111e+02
200             	3.00158745e+02
201             	3.00157623e+02
202             	3.00156570e+02
203             	3.00155921e+02
204             	3.00154830e+02
205             	3.00154095e+02
206             	3.00153448e+02
207             	3.00153104e+02
208             	3.00153265e+02
209             	3.00152991e+02
210             	3.00153102e+02
211             	3.00152870e+02
212             	3.00152348e+02
213             	3.00151738e+02
214             	3.00151584e+02
215             	3.00152108e+02
216             	3.00152168e+02
217             	3.00152495e+02
218             	3.00152879e+02
219             	3.00153549e+02
220             	3.00154366e+02
221             	3.00155534e+02
222             	3.00157044e+02
223             	3.00158179e+02
224             	3.00159157e+02
225             	3.00159538e+02
226             	3.00159807e+02
227             	3.00160321e+02
228             	3.00160885e+02
229             	3.00161570e+02
230             	3.00162509e+02
231             	3.00163208e+02
232             	3.00163332e+02
233             	3.00164384e+02
234             	3.00164875e+02
235             	3.00165379e+02
236             	3.00165951e+02
237             	3.00166102e+02
238             	3.00166170e+02
239             	3.00168083e+02
240             	3.00168385e+02
241             	3.00168966e+02
242             	3.00169385e+02
243             	3.00170172e+02
244             	3.00170729e+02
245             	3.00169988e+02
246             	3.00170732e+02
247             	3.00171370e+02
248             	3.00171402e+02
249             	3.00171101e+02
250             	3.00170632e+02
251             	3.00170235e+02
252             	3.00169503e+02
253             	3.00169330e+02
254             	3.00170039e+02
255             	3.00169885e+02
256             	3.00169848e+02
257             	3.00170504e+02
258             	3.00170991e+02
259             	3.00171565e+02
260             	3.00171664e+02
261             	3.00171933e+02
262             	3.00171871e+02
263             	3.00171992e+02
264             	3.00171712e+02
265             	3.00171222e+02
266             	3.00170732e+02
267             	3.00170581e+02
268             	3.00170259e+02
269             	3.00169823e+02
270             	3.00169567e+02
271             	3.00169639e+02
272             	3.00170016e+02
273             	3.00170248e+02
274             	3.00170727e+02
275             	3.00171310e+02
276             	3.00171063e+02
277             	3.00170862e+02
278             	3.00170273e+02
279             	3.00169831e+02
280             	3.00169488e+02
281             	3.00169034e+02
282             	3.00168848e+02
283             	3.00169174e+02
284             	3.00169170e+02
285             	3.00169445e+02
286             	3.00169926e+02
287             	3.00170172e+02
288             	3.00170674e+02
289             	3.00171127e+02
290             	3.00171464e+02
291             	3.00171811e+02
292             	3.00172210e+02
293             	3.00172454e+02
294             	3.00172743e+02
295             	3.00173212e+02
296             	3.00173864e+02
297             	3.00174548e+02
298             	3.00175163e+02
299             	3.00175979e+02
300             	3.00176615e+02
301             	3.00177605e+02
302             	3.00178472e+02
303             	3.00178771e+02
304             	3.00178901e+02
305             	3.00178723e+02
306             	3.00178594e+02
307             	3.00178559e+02
308             	3.00178588e+02
309             	3.00178789e+02
310             	3.00179189e+02
311             	3.00180208e+02
312             	3.00180544e+02
313             	3.00181204e+02
314             	3.00181600e+02
315             	3.00181967e+02
316             	3.00182504e+02
317             	3.00182933e+02
318             	3.00183437e+02
319             	3.00183305e+02
320             	3.00183195e+02
321             	3.00183144e+02
322             	3.00183138e+02
323             	3.00183048e+02
324             	3.00183429e+02
325             	3.00183658e+02
326             	3.00183886e+02
327             	3.00183958e+02
328             	3.00184013e+02
329             	3.00184014e+02
330             	3.00183804e+02
331             	3.00183680e+02
332             	3.00182947e+02
333             	3.00181935e+02
334             	3.00180931e+02
335             	3.00179756e+02
336             	3.00178920e+02
337             	3.00178096e+02
338             	3.00177429e+02
339             	3.00176897e+02
340             	3.00176366e+02
341             	3.00175815e+02
342             	3.00175396e+02
343             	3.00175050e+02
344             	3.00174878e+02
345             	3.00174840e+02
346             	3.00174909e+02
347             	3.00175133e+02
348             	3.00175485e+02
349             	3.00175802e+02
350             	3.00175709e+02
351             	3.00176100e+02
352             	3.00176520e+02
353             	3.00176799e+02
354             	3.00177149e+02
355             	3.00177485e+02
356             	3.00177781e+02
357             	3.00178044e+02
358             	3.00178316e+02
359             	3.00178631e+02
360             	3.00178896e+02
361             	3.00179181e+02
362             	3.00179490e+02
363             	3.00179833e+02
364             	3.00180335e+02
365             	3.00180796e+02
366             	3.00181189e+02
367             	3.00181326e+02
368             	3.00181539e+02
369             	3.00181593e+02
370             	3.00181608e+02
371             	3.00181595e+02
372             	3.00181529e+02
373             	3.00181422e+02
374             	3.00181348e+02
375             	3.00181398e+02
376             	3.00181365e+02
377             	3.00181399e+02
378             	3.00181514e+02
379             	3.00181750e+02
380             	3.00182028e+02
381             	3.00182304e+02
382             	3.00182603e+02
383             	3.00182959e+02
384             	3.00183301e+02
385             	3.00183682e+02
386             	3.00184138e+02
387             	3.00184620e+02
388             	3.00185038e+02
389             	3.00185412e+02
390             	3.00185730e+02
391             	3.00186126e+02
392             	3.00186341e+02
393             	3.00186480e+02
394             	3.00186524e+02
395             	3.00186448e+02
396             	3.00186290e+02
397             	3.00186021e+02
398             	3.00185664e+02
399             	3.00184972e+02
400             	3.00184236e+02
401             	3.00183560e+02
402             	3.00182945e+02
403             	3.00181956e+02
404             	3.00181295e+02
405             	3.00180604e+02
406             	3.00179754e+02
407             	3.00179159e+02
408             	3.00178342e+02
409             	3.00177649e+02
410             	3.00176995e+02
411             	3.00176514e+02
412             	3.00176097e+02
413             	3.00175763e+02
414             	3.00175596e+02
415             	3.00175521e+02
416             	3.00175527e+02
417             	3.00175565e+02
418             	3.00175780e+02
419             	3.00176014e+02
420             	3.00176174e+02
421             	3.00176242e+02
422             	3.00176364e+02
423             	3.00176472e+02
424             	3.00176458e+02
425             	3.00176747e+02
426             	3.00177005e+02
427             	3.00177247e+02
428             	3.00177606e+02
429             	3.00178011e+02
430             	3.00178374e+02
431             	3.00178643e+02
432             	3.00178830e+02
433             	3.00178961e+02
434             	3.00179033e+02
435             	3.00179112e+02
436             	3.00179066e+02
437             	3.00179023e+02
438             	3.00178958e+02
439             	3.00179360e+02
440             	3.00179819e+02
441             	3.00179726e+02
442             	3.00179792e+02
443             	3.00179995e+02
444             	3.00180100e+02
445             	3.00180179e+02
446             	3.00180177e+02
447             	3.00180147e+02
448             	3.00180021e+02
449             	3.00180057e+02
450             	3.00180000e+02
451             	3.00180049e+02
452             	3.00180137e+02
453             	3.00179827e+02
454             	3.00180019e+02
455             	3.00179865e+02
456             	3.00179735e+02
457             	3.00179775e+02
458             	3.00179727e+02
459             	3.00179712e+02
460             	3.00179715e+02
461             	3.00179654e+02
462             	3.00179607e+02
463             	3.00179563e+02
464             	3.00179429e+02
465             	3.00179603e+02
466             	3.00180143e+02
467             	3.00180015e+02
468             	3.00179908e+02
469             	3.00180123e+02
470             	3.00180472e+02
471             	3.00180823e+02
472             	3.00180994e+02
473             	3.00180859e+02
474             	3.00180526e+02
475             	3.00180069e+02
476             	3.00179819e+02
477             	3.00179532e+02
478             	3.00179093e+02
479             	3.00178677e+02
480             	3.00178348e+02
481             	3.00178269e+02
482             	3.00177875e+02
483             	3.00178086e+02
484             	3.00177910e+02
485             	3.00177830e+02
486             	3.00178124e+02
487             	3.00177852e+02
488             	3.00177723e+02
489             	3.00177455e+02
490             	3.00177081e+02
491             	3.00176692e+02
492             	3.00176314e+02
493             	3.00176083e+02
494             	3.00176142e+02
495             	3.00176357e+02
496             	3.00176690e+02
497             	3.00176929e+02
498             	3.00176244e+02
499             	3.00176764e+02
500             	3.00177106e+02
501             	3.00177318e+02
502             	3.00177314e+02
503             	3.00177029e+02
504             	3.00176782e+02
505             	3.00176425e+02
506             	3.00176589e+02
507             	3.00176646e+02
508             	3.00176794e+02
509             	3.00177230e+02
510             	3.00177441e+02
511             	3.00177795e+02
512             	3.00178155e+02
513             	3.00178553e+02
514             	3.00178894e+02
515             	3.00179238e+02
516             	3.00179490e+02
517             	3.00179698e+02
518             	3.00180080e+02
519             	3.00180470e+02
520             	3.00180668e+02
521             	3.00180277e+02
522             	3.00180119e+02
523             	3.00180292e+02
524             	3.00180306e+02
525             	3.00180198e+02
526             	3.00180050e+02
527             	3.00179912e+02
528             	3.00179734e+02
529             	3.00179789e+02
530             	3.00179796e+02
531             	3.00179913e+02
532             	3.00180094e+02
533             	3.00180239e+02
534             	3.00180314e+02
535             	3.00180519e+02
536             	3.00180728e+02
537             	3.00180954e+02
538             	3.00181190e+02
539             	3.00181445e+02
540             	3.00181744e+02
541             	3.00181975e+02
542             	3.00182195e+02
543             	3.00182487e+02
544             	3.00182636e+02
545             	3.00182879e+02
546             	3.00183119e+02
547             	3.00183272e+02
548             	3.00182851e+02
549             	3.00183181e+02
550             	3.00183395e+02
551             	3.00183715e+02
552             	3.00183981e+02
553             	3.00184038e+02
554             	3.00183982e+02
555             	3.00184000e+02
556             	3.00183862e+02
557             	3.00183780e+02
558             	3.00183737e+02
559             	3.00183440e+02
560             	3.00183153e+02
561             	3.00182904e+02
562             	3.00182592e+02
563             	3.00182140e+02
564             	3.00181811e+02
565             	3.00181388e+02
566             	3.00180901e+02
567             	3.00180500e+02
568             	3.00180055e+02
569             	3.00179685e+02
570             	3.00179238e+02
571             	3.00178566e+02
572             	3.00178288e+02
573             	3.00178102e+02
574             	3.00177943e+02
575             	3.00177725e+02
576             	3.00177636e+02
577             	3.00177515e+02
578             	3.00177419e+02
579             	3.00177379e+02
580             	3.00177458e+02
581             	3.00177666e+02
582             	3.00177649e+02
583             	3.00177744e+02
584             	3.00177811e+02
585             	3.00177755e+02
586             	3.00177693e+02
587             	3.00177819e+02
588             	3.00178232e+02
589             	3.00178220e+02
590             	3.00178242e+02
591             	3.00178397e+02
592             	3.00178596e+02
593             	3.00178717e+02
594             	3.00178652e+02
595             	3.00178585e+02
596             	3.00178499e+02
597             	3.00178305e+02
598             	3.00178044e+02
599             	3.00177796e+02
600             	3.00177591e+02
601             	3.00177327e+02
602             	3.00177171e+02
603             	3.00177084e+02
604             	3.00177038e+02
605             	3.00177077e+02
606             	3.00177154e+02
607             	3.00176843e+02
608             	3.00177054e+02
609             	3.00177216e+02
610             	3.00177333e+02
611             	3.00177393e+02
612             	3.00177533e+02
613             	3.00177654e+02
614             	3.00177820e+02
615             	3.00177887e+02
616             	3.00177954e+02
617             	3.00177998e+02
618             	3.00178020e+02
619             	3.00178336e+02
620             	3.00178177e+02
621             	3.00178056e+02
622             	3.00178019e+02
623             	3.00178146e+02
624             	3.00178271e+02
625             	3.00178339e+02
626             	3.00178335e+02
627             	3.00178313e+02
628             	3.00178163e+02
629             	3.00178073e+02
630             	3.00177963e+02
631             	3.00178151e+02
632             	3.00178342e+02
633             	3.00178473e+02
634             	3.00178603e+02
635             	3.00178747e+02
636             	3.00178840e+02
637             	3.00179006e+02
638             	3.00179144e+02
639             	3.00179181e+02
640             	3.00179293e+02
641             	3.00180041e+02
642             	3.00180113e+02
643             	3.00180323e+02
644             	3.00180673e+02
645             	3.00181151e+02
646             	3.00181697e+02
647             	3.00182220e+02
648             	3.00182596e+02
649             	3.00182976e+02
650             	3.00183168e+02
651             	3.00183203e+02
652             	3.00183074e+02
653             	3.00183082e+02
654             	3.00183143e+02
655             	3.00183215e+02
656             	3.00183341e+02
657             	3.00183518e+02
658             	3.00183584e+02
659             	3.00183147e+02
660             	3.00183309e+02
661             	3.00182961e+02
662             	3.00182571e+02
663             	3.00182175e+02
664             	3.00182039e+02
665             	3.00181870e+02
666             	3.00181887e+02
667             	3.00181971e+02
668             	3.00182188e+02
669             	3.00182347e+02
670             	3.00182497e+02
671             	3.00182677e+02
672             	3.00182800e+02
673             	3.00182884e+02
674             	3.00182889e+02
675             	3.00182800e+02
676             	3.00182733e+02
677             	3.00182780e+02
678             	3.00182762e+02
679             	3.00183094e+02
680             	3.00183183e+02
681             	3.00183449e+02
682             	3.00183616e+02
683             	3.00183769e+02
684             	3.00183832e+02
685             	3.00183439e+02
686             	3.00183730e+02
687             	3.00183741e+02
688             	3.00183667e+02
689             	3.00183756e+02
690             	3.00183875e+02
691             	3.00184005e+02
692             	3.00184020e+02
693             	3.00184070e+02
694             	3.00184215e+02
695             	3.00184719e+02
696             	3.00184931e+02
697             	3.00185158e+02
698             	3.00185354e+02
699             	3.00185534e+02
700             	3.00185682e+02
701             	3.00185745e+02
702             	3.00185711e+02
703             	3.00185572e+02
704             	3.00185339e+02
705             	3.00185060e+02
706             	3.00184731e+02
707             	3.00184468e+02
708             	3.00184190e+02
709             	3.00184012e+02
710             	3.00184118e+02
711             	3.00184045e+02
712             	3.00184166e+02
713             	3.00183979e+02
714             	3.00183802e+02
715             	3.00183904e+02
716             	3.00183854e+02
717             	3.00183823e+02
718             	3.00183821e+02
719             	3.00183842e+02
720             	3.00183869e+02
721             	3.00183976e+02
722             	3.00184078e+02
723             	3.00184200e+02
724             	3.00184328e+02
725             	3.00184475e+02
726             	3.00184628e+02
727             	3.00184823e+02
728             	3.00185118e+02
729             	3.00185371e+02
730             	3.00185642e+02
731             	3.00185916e+02
732             	3.00186170e+02
733             	3.00186348e+02
734             	3.00186464e+02
735             	3.00186532e+02
736             	3.00186579e+02
737             	3.00186704e+02
738             	3.00186635e+02
739             	3.00186747e+02
740             	3.00186822e+02
741             	3.00186866e+02
742             	3.00186906e+02
743             	3.00187058e+02
744             	3.00187008e+02
745             	3.00186994e+02
746             	3.00186923e+02
747             	3.00186816e+02
748             	3.00186723e+02
749             	3.00186612e+02
750             	3.00186559e+02
751             	3.00186484e+02
752             	3.00186407e+02
753             	3.00186472e+02
754             	3.00186530e+02
755             	3.00186586e+02
756             	3.00186684e+02
757             	3.00186731e+02
758             	3.00186724e+02
759             	3.00186692e+02
760             	3.00186735e+02
761             	3.00186823e+02
762             	3.00186930e+02
763             	3.00186992e+02
764             	3.00187140e+02
765             	3.00187184e+02
766             	3.00187245e+02
767             	3.00187279e+02
768             	3.00187247e+02
769             	3.00187144e+02
770             	3.00187161e+02
771             	3.00187206e+02
772             	3.00187220e+02
773             	3.00187261e+02
774             	3.00187261e+02
775             	3.00187279e+02
776             	3.00187284e+02
777             	3.00187317e+02
778             	3.00187326e+02
779             	3.00187301e+02
780             	3.00187264e+02
781             	3.00187193e+02
782             	3.00187104e+02
783             	3.00186967e+02
784             	3.00186851e+02
785             	3.00186675e+02
786             	3.00186540e+02
787             	3.00186302e+02
788             	3.00186094e+02
789             	3.00185855e+02
790             	3.00185729e+02
791             	3.00185569e+02
792             	3.00185430e+02
793             	3.00185229e+02
794             	3.00185109e+02
795             	3.00185078e+02
796             	3.00185081e+02
797             	3.00185164e+02
798             	3.00185111e+02
799             	3.00185118e+02
800             	3.00185140e+02
801             	3.00185158e+02
802             	3.00185191e+02
803             	3.00185140e+02
804             	3.00185057e+02
805             	3.00185043e+02
806             	3.00185106e+02
807             	3.00185137e+02
808             	3.00185200e+02
809             	3.00185286e+02
810             	3.00185386e+02
811             	3.00185488e+02
812             	3.00185634e+02
813             	3.00185778e+02
814             	3.00185953e+02
815             	3.00186114e+02
816             	3.00186294e+02
817             	3.00186484e+02
818             	3.00186653e+02
819             	3.00186817e+02
820             	3.00186974e+02
821             	3.00187080e+02
822             	3.00187207e+02
823             	3.00187280e+02
824             	3.00187385e+02
825             	3.00187498e+02
826             	3.00187604e+02
827             	3.00187606e+02
828             	3.00187672e+02
829             	3.00187692e+02
830             	3.00187704e+02
831             	3.00187687e+02
832             	3.00187728e+02
833             	3.00187728e+02
834             	3.00187782e+02
835             	3.00187768e+02
836             	3.00187940e+02
837             	3.00187905e+02
838             	3.00187935e+02
839             	3.00187963e+02
840             	3.00187990e+02
841             	3.00187950e+02
842             	3.00187944e+02
843             	3.00187943e+02
844             	3.00187965e+02
845             	3.00187943e+02
846             	3.00187979e+02
847             	3.00187985e+02
848             	3.00188000e+02
849             	3.00188043e+02
850             	3.00188176e+02
851             	3.00188082e+02
852             	3.00188232e+02
853             	3.00188466e+02
854             	3.00188641e+02
855             	3.00188827e+02
856             	3.00189009e+02
857             	3.00189232e+02
858             	3.00189431e+02
859             	3.00189619e+02
860             	3.00189821e+02
861             	3.00189975e+02
862             	3.00190135e+02
863             	3.00190263e+02
864             	3.00190574e+02
865             	3.00190451e+02
866             	3.00190425e+02
867             	3.00190424e+02
868             	3.00190425e+02
869             	3.00190554e+02
870             	3.00190610e+02
871             	3.00190769e+02
872             	3.00190838e+02
873             	3.00190910e+02
874             	3.00190953e+02
875             	3.00191015e+02
876             	3.00191051e+02
877             	3.00191085e+02
878             	3.00191075e+02
879             	3.00191053e+02
880             	3.00191034e+02
881             	3.00190888e+02
882             	3.00190985e+02
883             	3.00191070e+02
884             	3.00191104e+02
885             	3.00191162e+02
886             	3.00191243e+02
887             	3.00191343e+02
888             	3.00191366e+02
889             	3.00191412e+02
890             	3.00191466e+02
891             	3.00191541e+02
892             	3.00191607e+02
893             	3.00191596e+02
894             	3.00191708e+02
895             	3.00191806e+02
896             	3.00191908e+02
897             	3.00192009e+02
898             	3.00192090e+02
899             	3.00192208e+02
900             	3.00192288e+02
901             	3.00192389e+02
902             	3.00192478e+02
903             	3.00192591e+02
904             	3.00192709e+02
905             	3.00192846e+02
906             	3.00192958e+02
907             	3.00193087e+02
908             	3.00193190e+02
909             	3.00193279e+02
910             	3.00193310e+02
911             	3.00193387e+02
912             	3.00193442e+02
913             	3.00193459e+02
914             	3.00193493e+02
915             	3.00193515e+02
916             	3.00193518e+02
917             	3.00193547e+02
918             	3.00193505e+02
919             	3.00193486e+02
920             	3.00193430e+02
921             	3.00193388e+02
922             	3.00193320e+02
923             	3.00193303e+02
924             	3.00193306e+02
925             	3.00193306e+02
926             	3.00193266e+02
927             	3.00193270e+02
928             	3.00193262e+02
929             	3.00193264e+02
930             	3.00193198e+02
931             	3.00193206e+02
932             	3.00193207e+02
933             	3.00193236e+02