# Region        : cellZone fluid
# Cells         : 8485
# Volume        : 1.60298478e+01
# Time          	volAverage(T)
1               	3.00000014e+02
2               	3.00000045e+02
3               	3.00000321e+02
4               	3.00000739e+02
5               	3.00000972e+02
6               	3.00001263e+02
7               	3.00001538e+02
8               	3.00001920e+02
9               	3.00002350e+02
10              	3.00002900e+02
11              	3.00003390e+02
12              	3.00004292e+02
13              	3.00004978e+02
14              	3.00005718e+02
15              	3.00006602e+02
16              	3.00007437e+02
17              	3.00008204e+02
18              	3.00009441e+02
19              	3.00010326e+02
20              	3.00011252e+02
21              	3.00012697e+02
22              	3.00014040e+02
23              	3.00014797e+02
24              	3.00015654e+02
25              	3.00016951e+02
26              	3.00018263e+02
27              	3.00020348e+02
28              	3.00021252e+02
29              	3.00022107e+02
30              	3.00023297e+02
31              	3.00024580e+02
32              	3.00025718e+02
33              	3.00027269e+02
34              	3.00028635e+02
35              	3.00030170e+02
36              	3.00031161e+02
37              	3.00032654e+02
38              	3.00033426e+02
39              	3.00035230e+02
40              	3.00036103e+02
41              	3.00037355e+02
42              	3.00038758e+02
43              	3.00039907e+02
44              	3.00040950e+02
45              	3.00042445e+02
46              	3.00043687e+02
47              	3.00045886e+02
48              	3.00047210e+02
49              	3.00049755e+02
50              	3.00051324e+02
51              	3.00053569e+02
52              	3.00055451e+02
53              	3.00056281e+02
54              	3.00057958e+02
55              	3.00059227e+02
56              	3.00060600e+02
57              	3.00062363e+02
58              	3.00063992e+02
59              	3.00065755e+02
60              	3.00066697e+02
61              	3.00069093e+02
62              	3.00070781e+02
63              	3.00072733e+02
64              	3.00074268e+02
65              	3.00076024e+02
66              	3.00077362e+02
67              	3.00078655e+02
68              	3.00079900e+02
69              	3.00081503e+02
70              	3.00083285e+02
71              	3.00085526e+02
72              	3.00087237e+02
73              	3.00088454e+02
74              	3.00089932e+02
75              	3.00090916e+02
76              	3.00091655e+02
77              	3.00092414e+02
78              	3.00093526e+02
79              	3.00094631e+02
80              	3.00095752e+02
81              	3.00097318e+02
82              	3.00099096e+02
83              	3.00101010e+02
84              	3.00102464e+02
85              	3.00103620e+02
86              	3.00105328e+02
87              	3.00106663e+02
88              	3.00107892e+02
89              	3.00108787e+02
90              	3.00109709e+02
91              	3.00111413e+02
92              	3.00112955e+02
93              	3.00113732e+02
94              	3.00115241e+02
95              	3.00117021e+02
96              	3.00118487e+02
97              	3.00119365e+02
98              	3.00120177e+02
99              	3.00122448e+02
100             	3.00123108e+02
101             	3.00124044e+02
102             	3.00124494e+02
103             	3.00125227e+02
104             	3.00125920e+02
105             	3.00127059e+02
106             	3.00128555e+02
107             	3.00130070e+02
108             	3.00131452e+02
109             	3.00132558e+02
110             	3.00133619e+02
111             	3.00135041e+02
112             	3.00136464e+02
113             	3.00137491e+02
114             	3.00138185e+02
115             	3.00138918e+02
116             	3.00140300e+02
117             	3.00141594e+02
118             	3.00142822e+02
119             	3.00143688e+02
120             	3.00144728e+02
121             	3.00146236e+02
122             	3.00147278e+02
123             	3.00148060e+02
124             	3.00148834e+02
125             	3.00150515e+02
126             	3.00151565e+02
127             	3.00152466e+02
128             	3.00153442e+02
129             	3.00154411e+02
130             	3.00155414e+02
131             	3.00156374e+02
132             	3.00157446e+02
133             	3.00158437e+02
134             	3.00159571e+02
135             	3.00160240e+02
136             	3.00161585e+02
137             	3.00162901e+02
138             	3.00163513e+02
139             	3.00164088e+02
140             	3.00164432e+02
141             	3.00165447e+02
142             	3.00166278e+02
143             	3.00166972e+02
144             	3.00167668e+02
145             	3.00168529e+02
146             	3.00169672e+02
147             	3.00170824e+02
148             	3.00171268e+02
149             	3.00172290e+02
150             	3.00172672e+02
151             	3.00173077e+02
152             	3.00173606e+02
153             	3.00174193e+02
154             	3.00174678e+02
155             	3.00175029e+02
156             	3.00175414e+02
157             	3.00176247e+02
158             	3.00176758e+02
159             	3.00177438e+02
160             	3.00178027e+02
161             	3.00178360e+02
162             	3.00178717e+02
163             	3.00179176e+02
164             	3.00179999e+02
165             	3.00180726e+02
166             	3.00181043e+02
167             	3.00181514e+02
168             	3.00182000e+02
169             	3.00182484e+02
170             	3.00182895e+02
171             	3.00183538e+02
172             	3.00184179e+02
173             	3.00184840e+02
174             	3.00185577e+02
175             	3.00186375e+02
176             	3.00187364e+02
177             	3.00187998e+02
178             	3.00188573e+02
179             	3.00189109e+02
180             	3.00189599e+02
181             	3.00190138e+02
182             	3.00190658e+02
183             	3.00191088e+02
184             	3.00191455e+02
185             	3.00191948e+02
186             	3.00192493e+02
187             	3.00192971e+02
188             	3.00193501e+02
189             	3.00194234e+02
190             	3.00194696e+02
191             	3.00195297e+02
192             	3.00195749e+02
193             	3.00196234e+02
194             	3.00196622e+02
195             	3.00197123e+02
196             	3.00197595e+02
197             	3.00198090e+02
198             	3.00198625e+02
199             	3.00199140e+02
200             	3.00199689e+02
201             	3.00200258e+02
202             	3.00200827e+02
203             	3.00201545e+02
204             	3.00202312e+02
205             	3.00202668e+02
206             	3.00203106e+02
207             	3.00203476e+02
208             	3.00203813e+02
209             	3.00204113e+02
210             	3.00204545e+02
211             	3.00205039e+02
212             	3.00205531e+02
213             	3.00206067e+02
214             	3.00206577e+02
215             	3.00207105e+02
216             	3.00207634e+02
217             	3.00207923e+02
218             	3.00208274e+02
219             	3.00208577e+02
220             	3.00208898e+02
221             	3.00209316e+02
222             	3.00209691e+02
223             	3.00209992e+02
224             	3.00210431e+02
225             	3.00210842e+02
226             	3.00211285e+02
227             	3.00211726e+02
228             	3.00212192e+02
229             	3.00212690e+02
230             	3.00213159e+02
231             	3.00213543e+02
232             	3.00214007e+02
233             	3.00214415e+02
234             	3.00214759e+02
235             	3.00215120e+02
236             	3.00215412e+02
237             	3.00215731e+02
238             	3.00216018e+02
239             	3.00216343e+02
240             	3.00216620e+02
241             	3.00216933e+02
242             	3.00217213e+02
243             	3.00217520e+02
244             	3.00217780e+02
245             	3.00218142e+02
246             	3.00218487e+02
247             	3.00218863e+02
248             	3.00219166e+02
249             	3.00219520e+02
250             	3.00219782e+02
251             	3.00220100e+02
252             	3.00220405e+02
253             	3.00220754e+02
254             	3.00221074e+02
255             	3.00221383e+02
256             	3.00221681e+02
257             	3.00222080e+02
258             	3.00222446e+02
259             	3.00222795e+02
260             	3.00223110e+02
261             	3.00223473e+02
262             	3.00223764e+02
263             	3.00224093e+02
264             	3.00224300e+02
265             	3.00224545e+02
266             	3.00224787e+02
267             	3.00224997e+02
268             	3.00225263e+02
269             	3.00225654e+02
270             	3.00226014e+02
271             	3.00226353e+02
272             	3.00226631e+02
273             	3.00226941e+02
274             	3.00227175e+02
275             	3.00227455e+02
276             	3.00227707e+02
277             	3.00227896e+02
278             	3.00228061e+02
279             	3.00228233e+02
280             	3.00228487e+02
281             	3.00228765e+02
282             	3.00228988e+02
283             	3.00229208e+02
284             	3.00229382e+02
285             	3.00229618e+02
286             	3.00229853e+02
287             	3.00230098e+02
288             	3.00230351e+02
289             	3.00230502e+02
290             	3.00230655e+02
291             	3.00230858e+02
292             	3.00230996e+02
293             	3.00231091e+02
294             	3.00231238e+02
295             	3.00231493e+02
296             	3.00231692e+02
297             	3.00231899e+02
298             	3.00232087e+02
299             	3.00232333e+02
300             	3.00232560e+02
301             	3.00232858e+02
302             	3.00233022e+02
303             	3.00233198e+02
304             	3.00233407e+02
305             	3.00233541e+02
306             	3.00233694e+02
307             	3.00233764e+02
308             	3.00233912e+02
309             	3.00234145e+02
310             	3.00234406e+02
311             	3.00234610e+02
312             	3.00234835e+02
313             	3.00235064e+02
314             	3.00235242e+02
315             	3.00235341e+02
316             	3.00235412e+02
317             	3.00235524e+02
318             	3.00235554e+02
319             	3.00235656e+02
320             	3.00235818e+02
321             	3.00236030e+02
322             	3.00236187e+02
323             	3.00236396e+02
324             	3.00236563e+02
325             	3.00236722e+02
326             	3.00236853e+02
327             	3.00236942e+02
328             	3.00237091e+02
329             	3.00237230e+02
330             	3.00237368e+02
331             	3.00237396e+02
332             	3.00237454e+02
333             	3.00237450e+02
334             	3.00237477e+02
335             	3.00237621e+02
336             	3.00237782e+02
337             	3.00237842e+02
338             	3.00237950e+02
339             	3.00238072e+02
340             	3.00238321e+02
341             	3.00238555e+02
342             	3.00238542e+02
343             	3.00238622e+02
344             	3.00238689e+02
345             	3.00238756e+02
346             	3.00238767e+02
347             	3.00238816e+02
348             	3.00238980e+02
349             	3.00239157e+02
350             	3.00239260e+02
351             	3.00239378e+02
352             	3.00239507e+02
353             	3.00239696e+02
354             	3.00239873e+02
355             	3.00239870e+02
356             	3.00239913e+02
357             	3.00239927e+02
358             	3.00239860e+02
359             	3.00239878e+02
360             	3.00240004e+02
361             	3.00240173e+02
362             	3.00240274e+02
363             	3.00240426e+02
364             	3.00240604e+02
365             	3.00240811e+02
366             	3.00241126e+02
367             	3.00241226e+02
368             	3.00241097e+02
369             	3.00240954e+02
370             	3.00240872e+02
371             	3.00240843e+02
372             	3.00240858e+02
373             	3.00241024e+02
374             	3.00241224e+02
375             	3.00241502e+02
376             	3.00241921e+02
377             	3.00242135e+02
378             	3.00242571e+02
379             	3.00242396e+02
380             	3.00242276e+02
381             	3.00242238e+02
382             	3.00242109e+02
383             	3.00242078e+02
384             	3.00242082e+02
385             	3.00242162e+02
386             	3.00242266e+02
387             	3.00242411e+02
388             	3.00242771e+02
389             	3.00242862e+02
390             	3.00243186e+02
391             	3.00243425e+02
392             	3.00243222e+02
393             	3.00243120e+02
394             	3.00243060e+02
395             	3.00242936e+02
396             	3.00242835e+02
397             	3.00242782e+02
398             	3.00242677e+02
399             	3.00242780e+02
400             	3.00242924e+02
401             	3.00242913e+02
402             	3.00242987e+02
403             	3.00243082e+02
404             	3.00243354e+02
405             	3.00243314e+02
406             	3.00243295e+02
407             	3.00243395e+02
408             	3.00243521e+02
409             	3.00243508e+02
410             	3.00243458e+02
411             	3.00243368e+02
412             	3.00243429e+02
413             	3.00243496e+02
414             	3.00243432e+02
415             	3.00243422e+02
416             	3.00243565e+02
417             	3.00243687e+02
418             	3.00243814e+02
419             	3.00243984e+02
420             	3.00244177e+02
421             	3.00244120e+02
422             	3.00244052e+02
423             	3.00244049e+02
424             	3.00244006e+02
425             	3.00243945e+02
426             	3.00243916e+02
427             	3.00243944e+02
428             	3.00243981e+02
429             	3.00243999e+02
430             	3.00244046e+02
431             	3.00244066e+02
432             	3.00244159e+02
433             	3.00244256e+02
434             	3.00244356e+02
435             	3.00244463e+02
436             	3.00244532e+02
437             	3.00244570e+02
438             	3.00244525e+02
439             	3.00244532e+02
440             	3.00244498e+02
441             	3.00244435e+02
442             	3.00244403e+02
443             	3.00244431e+02
444             	3.00244379e+02
445             	3.00244404e+02
446             	3.00244312e+02
447             	3.00244359e+02
448             	3.00244400e+02
449             	3.00244520e+02
450             	3.00244567e+02
451             	3.00244644e+02
452             	3.00244705e+02
453             	3.00244833e+02
454             	3.00244915e+02
455             	3.00245029e+02
456             	3.00245069e+02
457             	3.00245145e+02
458             	3.00245165e+02
459             	3.00245217e+02
460             	3.00245207e+02
461             	3.00245228e+02
462             	3.00245196e+02
463             	3.00245186e+02
464             	3.00245123e+02
465             	3.00245107e+02
466             	3.00245061e+02
467             	3.00245072e+02
468             	3.00245030e+02
469             	3.00245030e+02
470             	3.00245003e+02
471             	3.00245019e+02
472             	3.00244968e+02
473             	3.00244992e+02
474             	3.00244980e+02
475             	3.00245010e+02
476             	3.00245002e+02
477             	3.00245041e+02
478             	3.00245054e+02
479             	3.00245134e+02
480             	3.00245123e+02
481             	3.00245167e+02
482             	3.00245170e+02
483             	3.00245207e+02
484             	3.00245207e+02
485             	3.00245241e+02
486             	3.00245234e+02
487             	3.00245264e+02
488             	3.00245256e+02
489             	3.00245287e+02
490             	3.00245279e+02
491             	3.00245306e+02
492             	3.00245285e+02
493             	3.00245300e+02
494             	3.00245270e+02
495             	3.00245280e+02
496             	3.00245233e+02
497             	3.00245276e+02
498             	3.00245270e+02
499             	3.00245298e+02
500             	3.00245281e+02
501             	3.00245320e+02
502             	3.00245334e+02
503             	3.00245399e+02
504             	3.00245418e+02
505             	3.00245481e+02
506             	3.00245498e+02
507             	3.00245534e+02
508             	3.00245518e+02
509             	3.00245540e+02
510             	3.00245519e+02
511             	3.00245535e+02
512             	3.00245513e+02
513             	3.00245525e+02
514             	3.00245504e+02
515             	3.00245543e+02
516             	3.00245543e+02
517             	3.00245589e+02
518             	3.00245598e+02
519             	3.00245658e+02
520             	3.00245680e+02
521             	3.00245748e+02
522             	3.00245780e+02
523             	3.00245842e+02
524             	3.00245854e+02
525             	3.00245894e+02
526             	3.00245815e+02
527             	3.00245840e+02
528             	3.00245807e+02
529             	3.00245805e+02
530             	3.00245782e+02
531             	3.00245813e+02
532             	3.00245780e+02
533             	3.00245812e+02
534             	3.00245792e+02
535             	3.00245814e+02
536             	3.00245765e+02
537             	3.00245781e+02
538             	3.00245738e+02
539             	3.00245717e+02
540             	3.00245681e+02
541             	3.00245696e+02
542             	3.00245665e+02
543             	3.00245685e+02
544             	3.00245682e+02
545             	3.00245728e+02
546             	3.00245732e+02
547             	3.00245782e+02
548             	3.00245789e+02
549             	3.00245855e+02
550             	3.00245835e+02
551             	3.00245880e+02
552             	3.00245882e+02
553             	3.00245921e+02
554             	3.00245919e+02
555             	3.00245962e+02
556             	3.00245961e+02
557             	3.00246011e+02
558             	3.00245993e+02
559             	3.00246046e+02
560             	3.00246042e+02
561             	3.00246062e+02
562             	3.00245985e+02
563             	3.00246011e+02
564             	3.00245996e+02
565             	3.00246028e+02
566             	3.00246032e+02
567             	3.00246092e+02
568             	3.00246101e+02
569             	3.00246157e+02
570             	3.00246169e+02
571             	3.00246217e+02
572             	3.00246217e+02
573             	3.00246252e+02
574             	3.00246236e+02
575             	3.00246262e+02
576             	3.00246252e+02
577             	3.00246284e+02
578             	3.00246274e+02
579             	3.00246319e+02
580             	3.00246332e+02
581             	3.00246392e+02
582             	3.00246404e+02
583             	3.00246452e+02
584             	3.00246455e+02
585             	3.00246495e+02
586             	3.00246504e+02
587             	3.00246540e+02
588             	3.00246519e+02
589             	3.00246544e+02
590             	3.00246527e+02
591             	3.00246563e+02
592             	3.00246546e+02
593             	3.00246604e+02
594             	3.00246615e+02
595             	3.00246667e+02
596             	3.00246668e+02
597             	3.00246700e+02
598             	3.00246686e+02
599             	3.00246689e+02
600             	3.00246674e+02
601             	3.00246687e+02
602             	3.00246663e+02
603             	3.00246667e+02
604             	3.00246646e+02
605             	3.00246670e+02
606             	3.00246655e+02
607             	3.00246674e+02
608             	3.00246648e+02
609             	3.00246654e+02
610             	3.00246614e+02
611             	3.00246610e+02
612             	3.00246566e+02
613             	3.00246573e+02
614             	3.00246539e+02
615             	3.00246558e+02
616             	3.00246539e+02
617             	3.00246587e+02
618             	3.00246592e+02
619             	3.00246651e+02
620             	3.00246671e+02
621             	3.00246734e+02
622             	3.00246770e+02
623             	3.00246850e+02
624             	3.00246861e+02
625             	3.00246920e+02
626             	3.00246923e+02
627             	3.00246960e+02
628             	3.00246941e+02
629             	3.00246968e+02
630             	3.00246949e+02
631             	3.00246974e+02
632             	3.00246959e+02
633             	3.00246973e+02
634             	3.00246942e+02
635             	3.00246961e+02
636             	3.00246944e+02
637             	3.00246969e+02
638             	3.00246938e+02
639             	3.00246943e+02
640             	3.00246902e+02
641             	3.00246909e+02
642             	3.00246904e+02
643             	3.00246951e+02
644             	3.00246954e+02
645             	3.00246983e+02
646             	3.00246989e+02
647             	3.00247026e+02
648             	3.00247039e+02
649             	3.00247140e+02
650             	3.00247177e+02
651             	3.00247256e+02
652             	3.00247260e+02
653             	3.00247313e+02
654             	3.00247299e+02
655             	3.00247313e+02
656             	3.00247277e+02
657             	3.00247287e+02
658             	3.00247236e+02
659             	3.00247228e+02
660             	3.00247182e+02
661             	3.00247186e+02
662             	3.00247158e+02
663             	3.00247181e+02
664             	3.00247198e+02
665             	3.00247250e+02
666             	3.00247259e+02
667             	3.00247244e+02
668             	3.00247264e+02
669             	3.00247304e+02
670             	3.00247297e+02
671             	3.00247326e+02
672             	3.00247320e+02
673             	3.00247353e+02
674             	3.00247339e+02
675             	3.00247380e+02
676             	3.00247336e+02
677             	3.00247336e+02
678             	3.00247300e+02
679             	3.00247297e+02
680             	3.00247249e+02
681             	3.00247256e+02
682             	3.00247247e+02
683             	3.00247302e+02
684             	3.00247319e+02
685             	3.00247388e+02
686             	3.00247416e+02
687             	3.00247491e+02
688             	3.00247480e+02
689             	3.00247509e+02
690             	3.00247496e+02
691             	3.00247541e+02
692             	3.00247554e+02
693             	3.00247529e+02
694             	3.00247566e+02
695             	3.00247635e+02
696             	3.00247653e+02
697             	3.00247707e+02
698             	3.00247695e+02
699             	3.00247721e+02
700             	3.00247694e+02
701             	3.00247723e+02
702             	3.00247704e+02
703             	3.00247720e+02
704             	3.00247690e+02
705             	3.00247729e+02
706             	3.00247752e+02
707             	3.00247813e+02
708             	3.00247833e+02
709             	3.00247888e+02
710             	3.00247888e+02
711             	3.00247911e+02
712             	3.00247871e+02
713             	3.00247876e+02
714             	3.00247883e+02
715             	3.00247939e+02
716             	3.00247906e+02
717             	3.00247936e+02
718             	3.00247970e+02
719             	3.00248028e+02
720             	3.00248052e+02
721             	3.00248110e+02
722             	3.00248115e+02
723             	3.00248161e+02
724             	3.00248208e+02
725             	3.00248251e+02
726             	3.00248260e+02
727             	3.00248290e+02
728             	3.00248277e+02
729             	3.00248168e+02
730             	3.00248199e+02
731             	3.00248256e+02
732             	3.00248264e+02
733             	3.00248306e+02
734             	3.00248322e+02
735             	3.00248362e+02
736             	3.00248366e+02
737             	3.00248413e+02
738             	3.00248469e+02
739             	3.00248504e+02
740             	3.00248540e+02
741             	3.00248625e+02
742             	3.00248670e+02
743             	3.00248735e+02
744             	3.00248753e+02
745             	3.00248791e+02
746             	3.00248767e+02
747             	3.00248773e+02
748             	3.00248734e+02
749             	3.00248748e+02
750             	3.00248730e+02
751             	3.00248763e+02
752             	3.00248767e+02
753             	3.00248836e+02
754             	3.00248821e+02
755             	3.00248853e+02
756             	3.00248849e+02
757             	3.00248890e+02
758             	3.00248887e+02
759             	3.00248924e+02
760             	3.00248922e+02
761             	3.00248953e+02
762             	3.00248917e+02
763             	3.00248937e+02
764             	3.00248900e+02
765             	3.00248912e+02
766             	3.00248906e+02
767             	3.00248907e+02
768             	3.00248879e+02
769             	3.00248905e+02
770             	3.00248907e+02
771             	3.00248920e+02
772             	3.00248894e+02
773             	3.00248889e+02
774             	3.00248836e+02
775             	3.00248853e+02
776             	3.00248817e+02
777             	3.00248825e+02
778             	3.00248785e+02
779             	3.00248779e+02
780             	3.00248722e+02
781             	3.00248707e+02
782             	3.00248645e+02
783             	3.00248621e+02
784             	3.00248593e+02
785             	3.00248583e+02
786             	3.00248550e+02
787             	3.00248572e+02
788             	3.00248572e+02
789             	3.00248623e+02
790             	3.00248629e+02
791             	3.00248700e+02
792             	3.00248718e+02
793             	3.00248758e+02
794             	3.00248755e+02
795             	3.00248798e+02
796             	3.00248809e+02
797             	3.00248852e+02
798             	3.00248858e+02
799             	3.00248907e+02
800             	3.00248907e+02
801             	3.00248906e+02
802             	3.00248904e+02
803             	3.00248932e+02
804             	3.00248909e+02
805             	3.00248922e+02
806             	3.00248882e+02
807             	3.00248873e+02
808             	3.00248812e+02
809             	3.00248812e+02
810             	3.00248759e+02
811             	3.00248753e+02
812             	3.00248711e+02
813             	3.00248722e+02
814             	3.00248693e+02
815             	3.00248707e+02
816             	3.00248679e+02
817             	3.00248696e+02
818             	3.00248670e+02
819             	3.00248688e+02
820             	3.00248662e+02
821             	3.00248681e+02
822             	3.00248664e+02
823             	3.00248686e+02
824             	3.00248674e+02
825             	3.00248709e+02
826             	3.00248726e+02
827             	3.00248760e+02
828             	3.00248755e+02
829             	3.00248794e+02
830             	3.00248781e+02
831             	3.00248810e+02
832             	3.00248800e+02
833             	3.00248821e+02
834             	3.00248786e+02
835             	3.00248784e+02
836             	3.00248761e+02
837             	3.00248772e+02
838             	3.00248719e+02
839             	3.00248689e+02
840             	3.00248622e+02
841             	3.00248597e+02
842             	3.00248494e+02
843             	3.00248489e+02
844             	3.00248443e+02
845             	3.00248441e+02
846             	3.00248409e+02
847             	3.00248423e+02
848             	3.00248368e+02
849             	3.00248364e+02
850             	3.00248319e+02
851             	3.00248289e+02
852             	3.00248237e+02
853             	3.00248234e+02
854             	3.00248209e+02
855             	3.00248219e+02
856             	3.00248215e+02
857             	3.00248266e+02
858             	3.00248266e+02
859             	3.00248319e+02
860             	3.00248324e+02
861             	3.00248372e+02
862             	3.00248391e+02
863             	3.00248405e+02
864             	3.00248377e+02
865             	3.00248386e+02
866             	3.00248346e+02
867             	3.00248347e+02
868             	3.00248324e+02
869             	3.00248359e+02
870             	3.00248348e+02
871             	3.00248380e+02
872             	3.00248365e+02
873             	3.00248384e+02
874             	3.00248357e+02
875             	3.00248362e+02
876             	3.00248330e+02
877             	3.00248336e+02
878             	3.00248289e+02
879             	3.00248283e+02
880             	3.00248224e+02
881             	3.00248195e+02
882             	3.00248155e+02
883             	3.00248148e+02
884             	3.00248110e+02
885             	3.00248110e+02
886             	3.00248087e+02
887             	3.00248106e+02
888             	3.00248099e+02
889             	3.00248126e+02
890             	3.00248120e+02
891             	3.00248150e+02
892             	3.00248162e+02
893             	3.00248221e+02
894             	3.00248237e+02
895             	3.00248281e+02
896             	3.00248297e+02
897             	3.00248350e+02
898             	3.00248366e+02
899             	3.00248415e+02
900             	3.00248449e+02
901             	3.00248519e+02
902             	3.00248516e+02
903             	3.00248577e+02
904             	3.00248591e+02
905             	3.00248606e+02
906             	3.00248586e+02
907             	3.00248612e+02
908             	3.00248606e+02
909             	3.00248642e+02
910             	3.00248616e+02
911             	3.00248633e+02
912             	3.00248596e+02
913             	3.00248609e+02
914             	3.00248575e+02
915             	3.00248571e+02
916             	3.00248519e+02
917             	3.00248485e+02
918             	3.00248429e+02
919             	3.00248407e+02
920             	3.00248320e+02
921             	3.00248327e+02
922             	3.00248306e+02
923             	3.00248324e+02
924             	3.00248315e+02
925             	3.00248359e+02
926             	3.00248387e+02
927             	3.00248444e+02
928             	3.00248509e+02
929             	3.00248580e+02
930             	3.00248570e+02
931             	3.00248570e+02
932             	3.00248555e+02
933             	3.00248586e+02