# Region        : cellZone pcb
# Cells         : 643
# Volume        : 1.18896800e+00
# Time          	volAverage(T)
1               	3.00029407e+02
2               	3.00085103e+02
3               	3.00161875e+02
4               	3.00258248e+02
5               	3.00370811e+02
6               	3.00499769e+02
7               	3.00643778e+02
8               	3.00801988e+02
9               	3.00974156e+02
10              	3.01159692e+02
11              	3.01358313e+02
12              	3.01567108e+02
13              	3.01785185e+02
14              	3.02012542e+02
15              	3.02250214e+02
16              	3.02492376e+02
17              	3.02742168e+02
18              	3.02999915e+02
19              	3.03264599e+02
20              	3.03530320e+02
21              	3.03801005e+02
22              	3.04077699e+02
23              	3.04360546e+02
24              	3.04646925e+02
25              	3.04935760e+02
26              	3.05229698e+02
27              	3.05529886e+02
28              	3.05833905e+02
29              	3.06138326e+02
30              	3.06445957e+02
31              	3.06753037e+02
32              	3.07061916e+02
33              	3.07374484e+02
34              	3.07686497e+02
35              	3.07998533e+02
36              	3.08308691e+02
37              	3.08618460e+02
38              	3.08928887e+02
39              	3.09239974e+02
40              	3.09550656e+02
41              	3.09857497e+02
42              	3.10165023e+02
43              	3.10473916e+02
44              	3.10784933e+02
45              	3.11095602e+02
46              	3.11407497e+02
47              	3.11714767e+02
48              	3.12021735e+02
49              	3.12328769e+02
50              	3.12634358e+02
51              	3.12937651e+02
52              	3.13237194e+02
53              	3.13533997e+02
54              	3.13828526e+02
55              	3.14120664e+02
56              	3.14410260e+02
57              	3.14698229e+02
58              	3.14985041e+02
59              	3.15269575e+02
60              	3.15553475e+02
61              	3.15834081e+02
62              	3.16113374e+02
63              	3.16392106e+02
64              	3.16670918e+02
65              	3.16947734e+02
66              	3.17220782e+02
67              	3.17493390e+02
68              	3.17768718e+02
69              	3.18038575e+02
70              	3.18303376e+02
71              	3.18563565e+02
72              	3.18820810e+02
73              	3.19073785e+02
74              	3.19324681e+02
75              	3.19571138e+02
76              	3.19818964e+02
77              	3.20062963e+02
78              	3.20303401e+02
79              	3.20541952e+02
80              	3.20776855e+02
81              	3.21009260e+02
82              	3.21240340e+02
83              	3.21468694e+02
84              	3.21697177e+02
85              	3.21923632e+02
86              	3.22148136e+02
87              	3.22367026e+02
88              	3.22583918e+02
89              	3.22800888e+02
90              	3.23013243e+02
91              	3.23222062e+02
92              	3.23428445e+02
93              	3.23631418e+02
94              	3.23830840e+02
95              	3.24026895e+02
96              	3.24221020e+02
97              	3.24412646e+02
98              	3.24601948e+02
99              	3.24787318e+02
100             	3.24970570e+02
101             	3.25151568e+02
102             	3.25331333e+02
103             	3.25510187e+02
104             	3.25687861e+02
105             	3.25863697e+02
106             	3.26038058e+02
107             	3.26211881e+02
108             	3.26386504e+02
109             	3.26560406e+02
110             	3.26730726e+02
111             	3.26894227e+02
112             	3.27057610e+02
113             	3.27217336e+02
114             	3.27369407e+02
115             	3.27520899e+02
116             	3.27672795e+02
117             	3.27823752e+02
118             	3.27973567e+02
119             	3.28122444e+02
120             	3.28270803e+02
121             	3.28417013e+02
122             	3.28561252e+02
123             	3.28700093e+02
124             	3.28838945e+02
125             	3.28975239e+02
126             	3.29105265e+02
127             	3.29234644e+02
128             	3.29367229e+02
129             	3.29497289e+02
130             	3.29626358e+02
131             	3.29755769e+02
132             	3.29885447e+02
133             	3.30010359e+02
134             	3.30133597e+02
135             	3.30251720e+02
136             	3.30371303e+02
137             	3.30488705e+02
138             	3.30600982e+02
139             	3.30711068e+02
140             	3.30818675e+02
141             	3.30924621e+02
142             	3.31029862e+02
143             	3.31134398e+02
144             	3.31239477e+02
145             	3.31344333e+02
146             	3.31447510e+02
147             	3.31550994e+02
148             	3.31652208e+02
149             	3.31752074e+02
150             	3.31849726e+02
151             	3.31949397e+02
152             	3.32043117e+02
153             	3.32133568e+02
154             	3.32226782e+02
155             	3.32320618e+02
156             	3.32411756e+02
157             	3.32499889e+02
158             	3.32587178e+02
159             	3.32674914e+02
160             	3.32764125e+02
161             	3.32848742e+02
162             	3.32926303e+02
163             	3.33005161e+02
164             	3.33083213e+02
165             	3.33161641e+02
166             	3.33240090e+02
167             	3.33317362e+02
168             	3.33395742e+02
169             	3.33474841e+02
170             	3.33548675e+02
171             	3.33620475e+02
172             	3.33695091e+02
173             	3.33768648e+02
174             	3.33840128e+02
175             	3.33910590e+02
176             	3.33979548e+02
177             	3.34047373e+02
178             	3.34113062e+02
179             	3.34177555e+02
180             	3.34240221e+02
181             	3.34301765e+02
182             	3.34362299e+02
183             	3.34422651e+02
184             	3.34484536e+02
185             	3.34547284e+02
186             	3.34608133e+02
187             	3.34667904e+02
188             	3.34727542e+02
189             	3.34785676e+02
190             	3.34842106e+02
191             	3.34896785e+02
192             	3.34950443e+02
193             	3.35004536e+02
194             	3.35057954e+02
195             	3.35110097e+02
196             	3.35162166e+02
197             	3.35215636e+02
198             	3.35268190e+02
199             	3.35318564e+02
200             	3.35367284e+02
201             	3.35415070e+02
202             	3.35460343e+02
203             	3.35504566e+02
204             	3.35548302e+02
205             	3.35591077e+02
206             	3.35635914e+02
207             	3.35680282e+02
208             	3.35725509e+02
209             	3.35771140e+02
210             	3.35816215e+02
211             	3.35859408e+02
212             	3.35901109e+02
213             	3.35941411e+02
214             	3.35981176e+02
215             	3.36021333e+02
216             	3.36061232e+02
217             	3.36100550e+02
218             	3.36138917e+02
219             	3.36175418e+02
220             	3.36211317e+02
221             	3.36246826e+02
222             	3.36280913e+02
223             	3.36313702e+02
224             	3.36346057e+02
225             	3.36378009e+02
226             	3.36409363e+02
227             	3.36440515e+02
228             	3.36471415e+02
229             	3.36501896e+02
230             	3.36531245e+02
231             	3.36559393e+02
232             	3.36586378e+02
233             	3.36613263e+02
234             	3.36640817e+02
235             	3.36666720e+02
236             	3.36691010e+02
237             	3.36715245e+02
238             	3.36740001e+02
239             	3.36764846e+02
240             	3.36789843e+02
241             	3.36813905e+02
242             	3.36837746e+02
243             	3.36860944e+02
244             	3.36883134e+02
245             	3.36904079e+02
246             	3.36924185e+02
247             	3.36944810e+02
248             	3.36965602e+02
249             	3.36986223e+02
250             	3.37006582e+02
251             	3.37025972e+02
252             	3.37045613e+02
253             	3.37065008e+02
254             	3.37083687e+02
255             	3.37101654e+02
256             	3.37118937e+02
257             	3.37135810e+02
258             	3.37152126e+02
259             	3.37167541e+02
260             	3.37182594e+02
261             	3.37196650e+02
262             	3.37210248e+02
263             	3.37223496e+02
264             	3.37236025e+02
265             	3.37248029e+02
266             	3.37259587e+02
267             	3.37270548e+02
268             	3.37281554e+02
269             	3.37292479e+02
270             	3.37303917e+02
271             	3.37315677e+02
272             	3.37327500e+02
273             	3.37339454e+02
274             	3.37350716e+02
275             	3.37362449e+02
276             	3.37374549e+02
277             	3.37387226e+02
278             	3.37399197e+02
279             	3.37411549e+02
280             	3.37424095e+02
281             	3.37436964e+02
282             	3.37449072e+02
283             	3.37461579e+02
284             	3.37473910e+02
285             	3.37486043e+02
286             	3.37497531e+02
287             	3.37509136e+02
288             	3.37520782e+02
289             	3.37532635e+02
290             	3.37544612e+02
291             	3.37555438e+02
292             	3.37565887e+02
293             	3.37575670e+02
294             	3.37585398e+02
295             	3.37595316e+02
296             	3.37604269e+02
297             	3.37613945e+02
298             	3.37622454e+02
299             	3.37628878e+02
300             	3.37634100e+02
301             	3.37640024e+02
302             	3.37646548e+02
303             	3.37653784e+02
304             	3.37660692e+02
305             	3.37668725e+02
306             	3.37678011e+02
307             	3.37686757e+02
308             	3.37695202e+02
309             	3.37703456e+02
310             	3.37711382e+02
311             	3.37720321e+02
312             	3.37729103e+02
313             	3.37736558e+02
314             	3.37743816e+02
315             	3.37751908e+02
316             	3.37758893e+02
317             	3.37766517e+02
318             	3.37774859e+02
319             	3.37782704e+02
320             	3.37790270e+02
321             	3.37796654e+02
322             	3.37802764e+02
323             	3.37809323e+02
324             	3.37816571e+02
325             	3.37823350e+02
326             	3.37830100e+02
327             	3.37836789e+02
328             	3.37842586e+02
329             	3.37848452e+02
330             	3.37854507e+02
331             	3.37859870e+02
332             	3.37865022e+02
333             	3.37871052e+02
334             	3.37876647e+02
335             	3.37882173e+02
336             	3.37887942e+02
337             	3.37892851e+02
338             	3.37897889e+02
339             	3.37903055e+02
340             	3.37907804e+02
341             	3.37912558e+02
342             	3.37918060e+02
343             	3.37923756e+02
344             	3.37927885e+02
345             	3.37932382e+02
346             	3.37936887e+02
347             	3.37941199e+02
348             	3.37946356e+02
349             	3.37951616e+02
350             	3.37956282e+02
351             	3.37961128e+02
352             	3.37965968e+02
353             	3.37969837e+02
354             	3.37973908e+02
355             	3.37977724e+02
356             	3.37981617e+02
357             	3.37986091e+02
358             	3.37990892e+02
359             	3.37995667e+02
360             	3.38000375e+02
361             	3.38005009e+02
362             	3.38009188e+02
363             	3.38013821e+02
364             	3.38017855e+02
365             	3.38022094e+02
366             	3.38026441e+02
367             	3.38030085e+02
368             	3.38034081e+02
369             	3.38038469e+02
370             	3.38042245e+02
371             	3.38046146e+02
372             	3.38048327e+02
373             	3.38049899e+02
374             	3.38051966e+02
375             	3.38053892e+02
376             	3.38056297e+02
377             	3.38058599e+02
378             	3.38061554e+02
379             	3.38064408e+02
380             	3.38067858e+02
381             	3.38071243e+02
382             	3.38074402e+02
383             	3.38076846e+02
384             	3.38080192e+02
385             	3.38083371e+02
386             	3.38086737e+02
387             	3.38089872e+02
388             	3.38092196e+02
389             	3.38095602e+02
390             	3.38097695e+02
391             	3.38100244e+02
392             	3.38102563e+02
393             	3.38105187e+02
394             	3.38109017e+02
395             	3.38112640e+02
396             	3.38115569e+02
397             	3.38118477e+02
398             	3.38120729e+02
399             	3.38122875e+02
400             	3.38123510e+02
401             	3.38125308e+02
402             	3.38127474e+02
403             	3.38129495e+02
404             	3.38130857e+02
405             	3.38132376e+02
406             	3.38133792e+02
407             	3.38134963e+02
408             	3.38136793e+02
409             	3.38138641e+02
410             	3.38138830e+02
411             	3.38138933e+02
412             	3.38138841e+02
413             	3.38139706e+02
414             	3.38141550e+02
415             	3.38143069e+02
416             	3.38144469e+02
417             	3.38147322e+02
418             	3.38150172e+02
419             	3.38153239e+02
420             	3.38156256e+02
421             	3.38158119e+02
422             	3.38159475e+02
423             	3.38160939e+02
424             	3.38162881e+02
425             	3.38166134e+02
426             	3.38167965e+02
427             	3.38167617e+02
428             	3.38167855e+02
429             	3.38168874e+02
430             	3.38169752e+02
431             	3.38171686e+02
432             	3.38172954e+02
433             	3.38173001e+02
434             	3.38174455e+02
435             	3.38176872e+02
436             	3.38178345e+02
437             	3.38179903e+02
438             	3.38181590e+02
439             	3.38182412e+02
440             	3.38183163e+02
441             	3.38183811e+02
442             	3.38183744e+02
443             	3.38184580e+02
444             	3.38185326e+02
445             	3.38186291e+02
446             	3.38186893e+02
447             	3.38186690e+02
448             	3.38186637e+02
449             	3.38187025e+02
450             	3.38187895e+02
451             	3.38188666e+02
452             	3.38190657e+02
453             	3.38191734e+02
454             	3.38192911e+02
455             	3.38195378e+02
456             	3.38197617e+02
457             	3.38199145e+02
458             	3.38200748e+02
459             	3.38202305e+02
460             	3.38202943e+02
461             	3.38203762e+02
462             	3.38204687e+02
463             	3.38204905e+02
464             	3.38205537e+02
465             	3.38206613e+02
466             	3.38207074e+02
467             	3.38209015e+02
468             	3.38210263e+02
469             	3.38210290e+02
470             	3.38209523e+02
471             	3.38209343e+02
472             	3.38210033e+02
473             	3.38210748e+02
474             	3.38212192e+02
475             	3.38214366e+02
476             	3.38216331e+02
477             	3.38217337e+02
478             	3.38218970e+02
479             	3.38220725e+02
480             	3.38222610e+02
481             	3.38223455e+02
482             	3.38223913e+02
483             	3.38224137e+02
484             	3.38224841e+02
485             	3.38225658e+02
486             	3.38226114e+02
487             	3.38227838e+02
488             	3.38229658e+02
489             	3.38230363e+02
490             	3.38229831e+02
491             	3.38230359e+02
492             	3.38230491e+02
493             	3.38231335e+02
494             	3.38231144e+02
495             	3.38231458e+02
496             	3.38232138e+02
497             	3.38233243e+02
498             	3.38234168e+02
499             	3.38235817e+02
500             	3.38237163e+02
501             	3.38238886e+02
502             	3.38240244e+02
503             	3.38241563e+02
504             	3.38243087e+02
505             	3.38243745e+02
506             	3.38244435e+02
507             	3.38244522e+02
508             	3.38244823e+02
509             	3.38245341e+02
510             	3.38245030e+02
511             	3.38246207e+02
512             	3.38246501e+02
513             	3.38246270e+02
514             	3.38245430e+02
515             	3.38245020e+02
516             	3.38244924e+02
517             	3.38245069e+02
518             	3.38245485e+02
519             	3.38245522e+02
520             	3.38246074e+02
521             	3.38247166e+02
522             	3.38248011e+02
523             	3.38249299e+02
524             	3.38249885e+02
525             	3.38251574e+02
526             	3.38252987e+02
527             	3.38254461e+02
528             	3.38255995e+02
529             	3.38256966e+02
530             	3.38258278e+02
531             	3.38259706e+02
532             	3.38260473e+02
533             	3.38261932e+02
534             	3.38263526e+02
535             	3.38264049e+02
536             	3.38264139e+02
537             	3.38264644e+02
538             	3.38264469e+02
539             	3.38263996e+02
540             	3.38263514e+02
541             	3.38263451e+02
542             	3.38262823e+02
543             	3.38261792e+02
544             	3.38261102e+02
545             	3.38260423e+02
546             	3.38260343e+02
547             	3.38260744e+02
548             	3.38261541e+02
549             	3.38261489e+02
550             	3.38261750e+02
551             	3.38262627e+02
552             	3.38262129e+02
553             	3.38263105e+02
554             	3.38264585e+02
555             	3.38266525e+02
556             	3.38267722e+02
557             	3.38269564e+02
558             	3.38271617e+02
559             	3.38273787e+02
560             	3.38276015e+02
561             	3.38277045e+02
562             	3.38278010e+02
563             	3.38278609e+02
564             	3.38276648e+02
565             	3.38274898e+02
566             	3.38275263e+02
567             	3.38274500e+02
568             	3.38273405e+02
569             	3.38272494e+02
570             	3.38272333e+02
571             	3.38272922e+02
572             	3.38273994e+02
573             	3.38274629e+02
574             	3.38275285e+02
575             	3.38274403e+02
576             	3.38274103e+02
577             	3.38274491e+02
578             	3.38274032e+02
579             	3.38273821e+02
580             	3.38274514e+02
581             	3.38274724e+02
582             	3.38275448e+02
583             	3.38276680e+02
584             	3.38277840e+02
585             	3.38279699e+02
586             	3.38281549e+02
587             	3.38282833e+02
588             	3.38283649e+02
589             	3.38283291e+02
590             	3.38283587e+02
591             	3.38283842e+02
592             	3.38284123e+02
593             	3.38284492e+02
594             	3.38284064e+02
595             	3.38283743e+02
596             	3.38282835e+02
597             	3.38282484e+02
598             	3.38282171e+02
599             	3.38280679e+02
600             	3.38279337e+02
601             	3.38278088e+02
602             	3.38276902e+02
603             	3.38275180e+02
604             	3.38274105e+02
605             	3.38273472e+02
606             	3.38272756e+02
607             	3.38272800e+02
608             	3.38273945e+02
609             	3.38274692e+02
610             	3.38275885e+02
611             	3.38277556e+02
612             	3.38278495e+02
613             	3.38280042e+02
614             	3.38282273e+02
615             	3.38283660e+02
616             	3.38284610e+02
617             	3.38286215e+02
618             	3.38287659e+02
619             	3.38289792e+02
620             	3.38291745e+02
621             	3.38292740e+02
622             	3.38294936e+02
623             	3.38296657e+02
624             	3.38297514e+02
625             	3.38297307e+02
626             	3.38296998e+02
627             	3.38295855e+02
628             	3.38295071e+02
629             	3.38294670e+02
630             	3.38293990e+02
631             	3.38293885e+02
632             	3.38294133e+02
633             	3.38293674e+02
634             	3.38293515e+02
635             	3.38293680e+02
636             	3.38293366e+02
637             	3.38293874e+02
638             	3.38295581e+02
639             	3.38296587e+02
640             	3.38297498e+02
641             	3.38298881e+02
642             	3.38299789e+02
643             	3.38301342e+02
644             	3.38303122e+02
645             	3.38304161e+02
646             	3.38305445e+02
647             	3.38306512e+02
648             	3.38306887e+02
649             	3.38307913e+02
650             	3.38309221e+02
651             	3.38310099e+02
652             	3.38311467e+02
653             	3.38312399e+02
654             	3.38312206e+02
655             	3.38312655e+02
656             	3.38312231e+02
657             	3.38310961e+02
658             	3.38309620e+02
659             	3.38308325e+02
660             	3.38306498e+02
661             	3.38305225e+02
662             	3.38304326e+02
663             	3.38302982e+02
664             	3.38302295e+02
665             	3.38302145e+02
666             	3.38301931e+02
667             	3.38302547e+02
668             	3.38303963e+02
669             	3.38304674e+02
670             	3.38305782e+02
671             	3.38307513e+02
672             	3.38308906e+02
673             	3.38310631e+02
674             	3.38312766e+02
675             	3.38314005e+02
676             	3.38315273e+02
677             	3.38315351e+02
678             	3.38314065e+02
679             	3.38312407e+02
680             	3.38311793e+02
681             	3.38311379e+02
682             	3.38311412e+02
683             	3.38311772e+02
684             	3.38311982e+02
685             	3.38311830e+02
686             	3.38311358e+02
687             	3.38309833e+02
688             	3.38307708e+02
689             	3.38305670e+02
690             	3.38303656e+02
691             	3.38301717e+02
692             	3.38300305e+02
693             	3.38299290e+02
694             	3.38298166e+02
695             	3.38297808e+02
696             	3.38298136e+02
697             	3.38298102e+02
698             	3.38299359e+02
699             	3.38300813e+02
700             	3.38301277e+02
701             	3.38302347e+02
702             	3.38304021e+02
703             	3.38305011e+02
704             	3.38306433e+02
705             	3.38308022e+02
706             	3.38308672e+02
707             	3.38309482e+02
708             	3.38310436e+02
709             	3.38311293e+02
710             	3.38309750e+02
711             	3.38310197e+02
712             	3.38309602e+02
713             	3.38307177e+02
714             	3.38305010e+02
715             	3.38303099e+02
716             	3.38301400e+02
717             	3.38300290e+02
718             	3.38299138e+02
719             	3.38298655e+02
720             	3.38298926e+02
721             	3.38299630e+02
722             	3.38299201e+02
723             	3.38298988e+02
724             	3.38299108e+02
725             	3.38299875e+02
726             	3.38299117e+02
727             	3.38298649e+02
728             	3.38298488e+02
729             	3.38298765e+02
730             	3.38298241e+02
731             	3.38298618e+02
732             	3.38299707e+02
733             	3.38300570e+02
734             	3.38301586e+02
735             	3.38302499e+02
736             	3.38303058e+02
737             	3.38303182e+02
738             	3.38303522e+02
739             	3.38301894e+02
740             	3.38300526e+02
741             	3.38299073e+02
742             	3.38296786e+02
743             	3.38294993e+02
744             	3.38293562e+02
745             	3.38291703e+02
746             	3.38290433e+02
747             	3.38289646e+02
748             	3.38288626e+02
749             	3.38288328e+02
750             	3.38288434e+02
751             	3.38288185e+02
752             	3.38288320e+02
753             	3.38289183e+02
754             	3.38289728e+02
755             	3.38290563e+02
756             	3.38291693e+02
757             	3.38292396e+02
758             	3.38293582e+02
759             	3.38294803e+02
760             	3.38295207e+02
761             	3.38296610e+02
762             	3.38298232e+02
763             	3.38298661e+02
764             	3.38299418e+02
765             	3.38300321e+02
766             	3.38300204e+02
767             	3.38300854e+02
768             	3.38300651e+02
769             	3.38298778e+02
770             	3.38296959e+02
771             	3.38295251e+02
772             	3.38293187e+02
773             	3.38291930e+02
774             	3.38291101e+02
775             	3.38289922e+02
776             	3.38289671e+02
777             	3.38289835e+02
778             	3.38289875e+02
779             	3.38290448e+02
780             	3.38290720e+02
781             	3.38290651e+02
782             	3.38291278e+02
783             	3.38291626e+02
784             	3.38292134e+02
785             	3.38292692e+02
786             	3.38292349e+02
787             	3.38292577e+02
788             	3.38293170e+02
789             	3.38293786e+02
790             	3.38295019e+02
791             	3.38296579e+02
792             	3.38297071e+02
793             	3.38298074e+02
794             	3.38299416e+02
795             	3.38298884e+02
796             	3.38298828e+02
797             	3.38299329e+02
798             	3.38299635e+02
799             	3.38298032e+02
800             	3.38296178e+02
801             	3.38294405e+02
802             	3.38292134e+02
803             	3.38290582e+02
804             	3.38289695e+02
805             	3.38288714e+02
806             	3.38288571e+02
807             	3.38289388e+02
808             	3.38290288e+02
809             	3.38291554e+02
810             	3.38293407e+02
811             	3.38294236e+02
812             	3.38295648e+02
813             	3.38296208e+02
814             	3.38296951e+02
815             	3.38298722e+02
816             	3.38300729e+02
817             	3.38302582e+02
818             	3.38303194e+02
819             	3.38303754e+02
820             	3.38304288e+02
821             	3.38304733e+02
822             	3.38304690e+02
823             	3.38302887e+02
824             	3.38300383e+02
825             	3.38298644e+02
826             	3.38297763e+02
827             	3.38297316e+02
828             	3.38296577e+02
829             	3.38296339e+02
830             	3.38294969e+02
831             	3.38293702e+02
832             	3.38293253e+02
833             	3.38292338e+02
834             	3.38291793e+02
835             	3.38291707e+02
836             	3.38290863e+02
837             	3.38290156e+02
838             	3.38289844e+02
839             	3.38288540e+02
840             	3.38287590e+02
841             	3.38287589e+02
842             	3.38286397e+02
843             	3.38286399e+02
844             	3.38285935e+02
845             	3.38284876e+02
846             	3.38284275e+02
847             	3.38284809e+02
848             	3.38285231e+02
849             	3.38285354e+02
850             	3.38286502e+02
851             	3.38287519e+02
852             	3.38288656e+02
853             	3.38289687e+02
854             	3.38289997e+02
855             	3.38290627e+02
856             	3.38291423e+02
857             	3.38291333e+02
858             	3.38291644e+02
859             	3.38292021e+02
860             	3.38291642e+02
861             	3.38291618e+02
862             	3.38291616e+02
863             	3.38290392e+02
864             	3.38288928e+02
865             	3.38287700e+02
866             	3.38286634e+02
867             	3.38285682e+02
868             	3.38284734e+02
869             	3.38285130e+02
870             	3.38285304e+02
871             	3.38285393e+02
872             	3.38285201e+02
873             	3.38284693e+02
874             	3.38284381e+02
875             	3.38283440e+02
876             	3.38282955e+02
877             	3.38283382e+02
878             	3.38284162e+02
879             	3.38285455e+02
880             	3.38287099e+02
881             	3.38287437e+02
882             	3.38287763e+02
883             	3.38288761e+02
884             	3.38289328e+02
885             	3.38290143e+02
886             	3.38291149e+02
887             	3.38292056e+02
888             	3.38293923e+02
889             	3.38295695e+02
890             	3.38296870e+02
891             	3.38297472e+02
892             	3.38298673e+02
893             	3.38299292e+02
894             	3.38298072e+02
895             	3.38296988e+02
896             	3.38296123e+02
897             	3.38295056e+02
898             	3.38294273e+02
899             	3.38293760e+02
900             	3.38293735e+02
901             	3.38294409e+02
902             	3.38295145e+02
903             	3.38296283e+02
904             	3.38296777e+02
905             	3.38297644e+02
906             	3.38298875e+02
907             	3.38299308e+02
908             	3.38299935e+02
909             	3.38301091e+02
910             	3.38301662e+02
911             	3.38302774e+02
912             	3.38304010e+02
913             	3.38304598e+02
914             	3.38305837e+02
915             	3.38307639e+02
916             	3.38308998e+02
917             	3.38310945e+02
918             	3.38313021e+02
919             	3.38314053e+02
920             	3.38315830e+02
921             	3.38316556e+02
922             	3.38315593e+02
923             	3.38315397e+02
924             	3.38314766e+02
925             	3.38313307e+02
926             	3.38312195e+02
927             	3.38311132e+02
928             	3.38309403e+02
929             	3.38308231e+02
930             	3.38307581e+02
931             	3.38306519e+02
932             	3.38306047e+02
933             	3.38305791e+02