# Region        : cellZone component_2
# Cells         : 16
# Volume        : 1.58920529e-02
# Time          	volAverage(T)
1               	3.27737574e+02
2               	3.54518825e+02
3               	3.72042597e+02
4               	3.85601410e+02
5               	3.99405895e+02
6               	4.13930320e+02
7               	4.28570991e+02
8               	4.43182335e+02
9               	4.57764493e+02
10              	4.72152438e+02
11              	4.86106916e+02
12              	4.99550860e+02
13              	5.12094542e+02
14              	5.24346532e+02
15              	5.36300048e+02
16              	5.47639754e+02
17              	5.58810342e+02
18              	5.67930876e+02
19              	5.73012142e+02
20              	5.75687480e+02
21              	5.78583155e+02
22              	5.81183116e+02
23              	5.83764656e+02
24              	5.85724064e+02
25              	5.88561159e+02
26              	5.90976833e+02
27              	5.93050758e+02
28              	5.93527918e+02
29              	5.93212306e+02
30              	5.91777532e+02
31              	5.89776244e+02
32              	5.88124223e+02
33              	5.86433994e+02
34              	5.84258312e+02
35              	5.82204978e+02
36              	5.80042050e+02
37              	5.78383827e+02
38              	5.77096737e+02
39              	5.75960958e+02
40              	5.75488518e+02
41              	5.75703854e+02
42              	5.76441296e+02
43              	5.77435751e+02
44              	5.78570367e+02
45              	5.79622209e+02
46              	5.80184926e+02
47              	5.80688666e+02
48              	5.80280377e+02
49              	5.79692969e+02
50              	5.78869909e+02
51              	5.77811740e+02
52              	5.76911905e+02
53              	5.76464087e+02
54              	5.76157243e+02
55              	5.76056881e+02
56              	5.76512382e+02
57              	5.77219600e+02
58              	5.77697373e+02
59              	5.78278111e+02
60              	5.79074655e+02
61              	5.79421628e+02
62              	5.79412324e+02
63              	5.79205946e+02
64              	5.79344037e+02
65              	5.78857646e+02
66              	5.78886149e+02
67              	5.78673364e+02
68              	5.78483585e+02
69              	5.78468051e+02
70              	5.78587046e+02
71              	5.78649624e+02
72              	5.78539065e+02
73              	5.78520698e+02
74              	5.78938200e+02
75              	5.79088715e+02
76              	5.79148252e+02
77              	5.79305359e+02
78              	5.79523086e+02
79              	5.80099360e+02
80              	5.80875799e+02
81              	5.81399096e+02
82              	5.81946722e+02
83              	5.82036167e+02
84              	5.81580767e+02
85              	5.81069777e+02
86              	5.80769456e+02
87              	5.80558655e+02
88              	5.80825125e+02
89              	5.81309947e+02
90              	5.81567011e+02
91              	5.81645483e+02
92              	5.81680056e+02
93              	5.82023179e+02
94              	5.82164473e+02
95              	5.82189290e+02
96              	5.82175913e+02
97              	5.82118186e+02
98              	5.81881305e+02
99              	5.81558252e+02
100             	5.81288256e+02
101             	5.81219339e+02
102             	5.80988722e+02
103             	5.80788191e+02
104             	5.80338537e+02
105             	5.80045070e+02
106             	5.80060523e+02
107             	5.79911129e+02
108             	5.80168501e+02
109             	5.80542747e+02
110             	5.80702728e+02
111             	5.80772864e+02
112             	5.80653665e+02
113             	5.80232607e+02
114             	5.80216091e+02
115             	5.80334375e+02
116             	5.80060203e+02
117             	5.79368614e+02
118             	5.79479912e+02
119             	5.79726100e+02
120             	5.80350260e+02
121             	5.80975896e+02
122             	5.81175807e+02
123             	5.80903331e+02
124             	5.80676338e+02
125             	5.80396482e+02
126             	5.79953954e+02
127             	5.79423188e+02
128             	5.79277078e+02
129             	5.78648151e+02
130             	5.77836413e+02
131             	5.76944142e+02
132             	5.76388419e+02
133             	5.76268371e+02
134             	5.76719112e+02
135             	5.77148051e+02
136             	5.77243466e+02
137             	5.76935368e+02
138             	5.76312025e+02
139             	5.75571075e+02
140             	5.74866160e+02
141             	5.74487073e+02
142             	5.74350517e+02
143             	5.74532620e+02
144             	5.74776631e+02
145             	5.74930744e+02
146             	5.74962044e+02
147             	5.74991419e+02
148             	5.75185373e+02
149             	5.75685999e+02
150             	5.76404016e+02
151             	5.77271326e+02
152             	5.78209610e+02
153             	5.78945672e+02
154             	5.79541028e+02
155             	5.80096610e+02
156             	5.80666693e+02
157             	5.81267479e+02
158             	5.81842036e+02
159             	5.82373503e+02
160             	5.82876263e+02
161             	5.83327443e+02
162             	5.83733551e+02
163             	5.84136900e+02
164             	5.84563926e+02
165             	5.85155035e+02
166             	5.85715662e+02
167             	5.86163117e+02
168             	5.86377308e+02
169             	5.86089939e+02
170             	5.86258810e+02
171             	5.86666191e+02
172             	5.87055790e+02
173             	5.87286352e+02
174             	5.87507096e+02
175             	5.88014802e+02
176             	5.87907456e+02
177             	5.88056085e+02
178             	5.88439843e+02
179             	5.88343334e+02
180             	5.88694102e+02
181             	5.88540945e+02
182             	5.88619856e+02
183             	5.89034057e+02
184             	5.88766265e+02
185             	5.88709268e+02
186             	5.88771803e+02
187             	5.88618880e+02
188             	5.88644862e+02
189             	5.88355984e+02
190             	5.88359529e+02
191             	5.88647309e+02
192             	5.88903012e+02
193             	5.89311907e+02
194             	5.89480467e+02
195             	5.89648287e+02
196             	5.89213236e+02
197             	5.89169540e+02
198             	5.89339399e+02
199             	5.89633675e+02
200             	5.89335327e+02
201             	5.89402627e+02
202             	5.89231230e+02
203             	5.89471991e+02
204             	5.89680622e+02
205             	5.89379416e+02
206             	5.89413802e+02
207             	5.89761948e+02
208             	5.89446026e+02
209             	5.89427180e+02
210             	5.89603226e+02
211             	5.89639176e+02
212             	5.89714561e+02
213             	5.89787099e+02
214             	5.89643840e+02
215             	5.89616833e+02
216             	5.89262442e+02
217             	5.89268746e+02
218             	5.89426037e+02
219             	5.89555523e+02
220             	5.89650753e+02
221             	5.89761419e+02
222             	5.89373636e+02
223             	5.89353020e+02
224             	5.89661700e+02
225             	5.89342354e+02
226             	5.89344737e+02
227             	5.89551228e+02
228             	5.89285639e+02
229             	5.89335942e+02
230             	5.89156827e+02
231             	5.89372671e+02
232             	5.89545273e+02
233             	5.89697279e+02
234             	5.89838876e+02
235             	5.89929141e+02
236             	5.90015405e+02
237             	5.89948437e+02
238             	5.89927177e+02
239             	5.89901031e+02
240             	5.89852592e+02
241             	5.89482918e+02
242             	5.89437632e+02
243             	5.89551728e+02
244             	5.89669601e+02
245             	5.89757038e+02
246             	5.89824752e+02
247             	5.89784618e+02
248             	5.90001192e+02
249             	5.89567911e+02
250             	5.89456800e+02
251             	5.89625414e+02
252             	5.89331751e+02
253             	5.89364198e+02
254             	5.89337400e+02
255             	5.89276122e+02
256             	5.89428122e+02
257             	5.89597872e+02
258             	5.89561779e+02
259             	5.89410294e+02
260             	5.89485155e+02
261             	5.89653639e+02
262             	5.89798750e+02
263             	5.90064914e+02
264             	5.89643787e+02
265             	5.89599278e+02
266             	5.89359641e+02
267             	5.89522016e+02
268             	5.89871775e+02
269             	5.89516325e+02
270             	5.89506427e+02
271             	5.89739075e+02
272             	5.89414572e+02
273             	5.89342487e+02
274             	5.89258949e+02
275             	5.89344550e+02
276             	5.89387636e+02
277             	5.89354384e+02
278             	5.89426019e+02
279             	5.89450012e+02
280             	5.89581714e+02
281             	5.89783328e+02
282             	5.89977402e+02
283             	5.89508556e+02
284             	5.89442949e+02
285             	5.89701694e+02
286             	5.89380949e+02
287             	5.89383332e+02
288             	5.89625154e+02
289             	5.89317186e+02
290             	5.89421946e+02
291             	5.89665377e+02
292             	5.89906855e+02
293             	5.90048987e+02
294             	5.89953970e+02
295             	5.89940598e+02
296             	5.89964679e+02
297             	5.89969306e+02
298             	5.89953840e+02
299             	5.89932774e+02
300             	5.89912853e+02
301             	5.89897289e+02
302             	5.89864842e+02
303             	5.89835794e+02
304             	5.89840785e+02
305             	5.89875694e+02
306             	5.89868335e+02
307             	5.89922245e+02
308             	5.90004323e+02
309             	5.90083541e+02
310             	5.90136625e+02
311             	5.90170671e+02
312             	5.90195058e+02
313             	5.90215526e+02
314             	5.89643698e+02
315             	5.89509201e+02
316             	5.89648638e+02
317             	5.89899990e+02
318             	5.89469331e+02
319             	5.89398397e+02
320             	5.89558067e+02
321             	5.89840114e+02
322             	5.89433753e+02
323             	5.89371415e+02
324             	5.89504865e+02
325             	5.89699556e+02
326             	5.89888130e+02
327             	5.89830120e+02
328             	5.89894443e+02
329             	5.90025472e+02
330             	5.90149541e+02
331             	5.90235261e+02
332             	5.90290013e+02
333             	5.89736867e+02
334             	5.89624451e+02
335             	5.89784047e+02
336             	5.90031316e+02
337             	5.89587181e+02
338             	5.89525767e+02
339             	5.89715713e+02
340             	5.89385591e+02
341             	5.89376215e+02
342             	5.89564473e+02
343             	5.89846028e+02
344             	5.89441176e+02
345             	5.89391186e+02
346             	5.89559883e+02
347             	5.89712957e+02
348             	5.89876166e+02
349             	5.90010296e+02
350             	5.90093920e+02
351             	5.90150642e+02
352             	5.90212898e+02
353             	5.90261135e+02
354             	5.90290971e+02
355             	5.90306607e+02
356             	5.89723975e+02
357             	5.89570434e+02
358             	5.89680347e+02
359             	5.89889053e+02
360             	5.89446889e+02
361             	5.89347894e+02
362             	5.89461279e+02
363             	5.89630396e+02
364             	5.89775971e+02
365             	5.89871735e+02
366             	5.89923006e+02
367             	5.89949088e+02
368             	5.89952960e+02
369             	5.89862458e+02
370             	5.89890039e+02
371             	5.89972914e+02
372             	5.90035724e+02
373             	5.90115853e+02
374             	5.90210048e+02
375             	5.90276136e+02
376             	5.89732202e+02
377             	5.89615516e+02
378             	5.89756678e+02
379             	5.89991223e+02
380             	5.90150480e+02
381             	5.90238424e+02
382             	5.90293868e+02
383             	5.90333277e+02
384             	5.89771860e+02
385             	5.89638013e+02
386             	5.89771718e+02
387             	5.90021047e+02
388             	5.89584680e+02
389             	5.89515871e+02
390             	5.89685210e+02
391             	5.89947238e+02
392             	5.89521240e+02
393             	5.89450916e+02
394             	5.89603924e+02
395             	5.89826005e+02
396             	5.90009514e+02
397             	5.90114693e+02
398             	5.89588425e+02
399             	5.89470405e+02
400             	5.89587322e+02
401             	5.89774598e+02
402             	5.89950355e+02
403             	5.90076222e+02
404             	5.90047435e+02
405             	5.90083460e+02
406             	5.90152606e+02
407             	5.90214110e+02
408             	5.90256753e+02
409             	5.90284813e+02
410             	5.90303946e+02
411             	5.89728173e+02
412             	5.89590932e+02
413             	5.89719927e+02
414             	5.89955099e+02
415             	5.89519878e+02
416             	5.89452642e+02
417             	5.89615922e+02
418             	5.89866620e+02
419             	5.89455721e+02
420             	5.89421831e+02
421             	5.89606462e+02
422             	5.89877569e+02
423             	5.89458720e+02
424             	5.89404269e+02
425             	5.89583565e+02
426             	5.89855158e+02
427             	5.90017733e+02
428             	5.90102551e+02
429             	5.90151335e+02
430             	5.90183829e+02
431             	5.90206544e+02
432             	5.90221701e+02
433             	5.90230730e+02
434             	5.90234763e+02
435             	5.90234158e+02
436             	5.90229198e+02
437             	5.89633030e+02
438             	5.89469810e+02
439             	5.89569707e+02
440             	5.89753248e+02
441             	5.89329400e+02
442             	5.89252531e+02
443             	5.89382247e+02
444             	5.89561716e+02
445             	5.89715985e+02
446             	5.89822279e+02
447             	5.89773766e+02
448             	5.89820141e+02
449             	5.89919386e+02
450             	5.90020204e+02
451             	5.90113897e+02
452             	5.90178963e+02
453             	5.90223121e+02
454             	5.90254372e+02
455             	5.89688961e+02
456             	5.89561225e+02
457             	5.89750876e+02
458             	5.89979330e+02
459             	5.89522808e+02
460             	5.89433596e+02
461             	5.89561446e+02
462             	5.89763988e+02
463             	5.89953570e+02
464             	5.90073578e+02
465             	5.90146617e+02
466             	5.90185860e+02
467             	5.90211156e+02
468             	5.90235399e+02
469             	5.90261967e+02
470             	5.90287425e+02
471             	5.90240294e+02
472             	5.90264235e+02
473             	5.90296260e+02
474             	5.90315372e+02
475             	5.90324607e+02
476             	5.90328316e+02
477             	5.89742540e+02
478             	5.89594512e+02
479             	5.89730448e+02
480             	5.89901313e+02
481             	5.90026551e+02
482             	5.90076168e+02
483             	5.90067996e+02
484             	5.90053928e+02
485             	5.90080304e+02
486             	5.90113698e+02
487             	5.90135764e+02
488             	5.90138966e+02
489             	5.90175100e+02
490             	5.90259037e+02
491             	5.90320152e+02
492             	5.89769351e+02
493             	5.89651689e+02
494             	5.89795158e+02
495             	5.90048500e+02
496             	5.89612169e+02
497             	5.89551140e+02
498             	5.89803743e+02
499             	5.89458649e+02
500             	5.89450732e+02
501             	5.89651690e+02
502             	5.89920608e+02
503             	5.89497625e+02
504             	5.89430431e+02
505             	5.89587498e+02
506             	5.89811829e+02
507             	5.89999630e+02
508             	5.90108552e+02
509             	5.90171341e+02
510             	5.90212306e+02
511             	5.90241942e+02
512             	5.90263853e+02
513             	5.90277765e+02
514             	5.90287615e+02
515             	5.90292519e+02
516             	5.90292916e+02
517             	5.89702300e+02
518             	5.89528295e+02
519             	5.89636578e+02
520             	5.89806509e+02
521             	5.89970059e+02
522             	5.90065732e+02
523             	5.90120562e+02
524             	5.90156749e+02
525             	5.90185717e+02
526             	5.90198467e+02
527             	5.90141486e+02
528             	5.90012545e+02
529             	5.90017267e+02
530             	5.90084785e+02
531             	5.90131619e+02
532             	5.90208226e+02
533             	5.89670960e+02
534             	5.89594220e+02
535             	5.89754696e+02
536             	5.89978720e+02
537             	5.89521482e+02
538             	5.89448131e+02
539             	5.89648423e+02
540             	5.89894405e+02
541             	5.90038496e+02
542             	5.90115244e+02
543             	5.90162625e+02
544             	5.90195886e+02
545             	5.90221162e+02
546             	5.90223548e+02
547             	5.90219365e+02
548             	5.90217665e+02
549             	5.90219294e+02
550             	5.90239542e+02
551             	5.90251392e+02
552             	5.90254250e+02
553             	5.90236556e+02
554             	5.90221558e+02
555             	5.90214415e+02
556             	5.90211962e+02
557             	5.90208498e+02
558             	5.90200660e+02
559             	5.90051191e+02
560             	5.90028335e+02
561             	5.90068692e+02
562             	5.90101706e+02
563             	5.90106646e+02
564             	5.90135824e+02
565             	5.90206040e+02
566             	5.90256434e+02
567             	5.89698369e+02
568             	5.89571712e+02
569             	5.89709967e+02
570             	5.89951165e+02
571             	5.89520097e+02
572             	5.89454020e+02
573             	5.89621623e+02
574             	5.89881737e+02
575             	5.89468879e+02
576             	5.89412098e+02
577             	5.89583193e+02
578             	5.89833193e+02
579             	5.90016862e+02
580             	5.89534483e+02
581             	5.89440990e+02
582             	5.89604328e+02
583             	5.89822096e+02
584             	5.89996475e+02
585             	5.90094513e+02
586             	5.90148460e+02
587             	5.89592954e+02
588             	5.89469937e+02
589             	5.89587197e+02
590             	5.89768187e+02
591             	5.89934727e+02
592             	5.90031498e+02
593             	5.90076029e+02
594             	5.90105922e+02
595             	5.90124535e+02
596             	5.90135804e+02
597             	5.90145530e+02
598             	5.90159149e+02
599             	5.90178472e+02
600             	5.90055434e+02
601             	5.90068170e+02
602             	5.90160294e+02
603             	5.90226129e+02
604             	5.90264113e+02
605             	5.90287436e+02
606             	5.90303711e+02
607             	5.89726947e+02
608             	5.89588485e+02
609             	5.89718660e+02
610             	5.89963647e+02
611             	5.89521574e+02
612             	5.89435490e+02
613             	5.89589845e+02
614             	5.89853615e+02
615             	5.89434717e+02
616             	5.89367647e+02
617             	5.89513958e+02
618             	5.89705615e+02
619             	5.89861052e+02
620             	5.89961712e+02
621             	5.90021222e+02
622             	5.90063798e+02
623             	5.90102501e+02
624             	5.90145424e+02
625             	5.90193625e+02
626             	5.90231220e+02
627             	5.90254674e+02
628             	5.90268215e+02
629             	5.90275552e+02
630             	5.90279061e+02
631             	5.90280177e+02
632             	5.90279814e+02
633             	5.90278804e+02
634             	5.89690951e+02
635             	5.89539029e+02
636             	5.89637367e+02
637             	5.89806057e+02
638             	5.89970790e+02
639             	5.90085211e+02
640             	5.90156982e+02
641             	5.90192907e+02
642             	5.90209689e+02
643             	5.90201314e+02
644             	5.90231005e+02
645             	5.90281196e+02
646             	5.90320157e+02
647             	5.90347527e+02
648             	5.90367800e+02
649             	5.90383751e+02
650             	5.90396376e+02
651             	5.90405985e+02
652             	5.89824521e+02
653             	5.89678087e+02
654             	5.89791518e+02
655             	5.89996843e+02
656             	5.89566439e+02
657             	5.89493186e+02
658             	5.89639010e+02
659             	5.89855208e+02
660             	5.90038199e+02
661             	5.90143630e+02
662             	5.90203125e+02
663             	5.90240723e+02
664             	5.90266750e+02
665             	5.90284985e+02
666             	5.90297342e+02
667             	5.90305410e+02
668             	5.90310586e+02
669             	5.90314092e+02
670             	5.90316934e+02
671             	5.90320120e+02
672             	5.90314499e+02
673             	5.90271170e+02
674             	5.90277340e+02
675             	5.90304148e+02
676             	5.90324100e+02
677             	5.90336928e+02
678             	5.90310706e+02
679             	5.90328456e+02
680             	5.90344916e+02
681             	5.90353742e+02
682             	5.89770519e+02
683             	5.89625321e+02
684             	5.89742686e+02
685             	5.89952550e+02
686             	5.90113541e+02
687             	5.89614304e+02
688             	5.89517798e+02
689             	5.89709845e+02
690             	5.89964950e+02
691             	5.89529121e+02
692             	5.89463981e+02
693             	5.89634522e+02
694             	5.89902036e+02
695             	5.89478144e+02
696             	5.89409730e+02
697             	5.89564552e+02
698             	5.89786911e+02
699             	5.89974636e+02
700             	5.90083267e+02
701             	5.90145095e+02
702             	5.90184039e+02
703             	5.90210237e+02
704             	5.90227211e+02
705             	5.90236819e+02
706             	5.90240783e+02
707             	5.90240988e+02
708             	5.89652630e+02
709             	5.89483069e+02
710             	5.89561966e+02
711             	5.89676255e+02
712             	5.89811864e+02
713             	5.89930711e+02
714             	5.90017097e+02
715             	5.90079840e+02
716             	5.90128990e+02
717             	5.90111635e+02
718             	5.90153744e+02
719             	5.90201673e+02
720             	5.90235201e+02
721             	5.90257827e+02
722             	5.90274545e+02
723             	5.90287873e+02
724             	5.90298788e+02
725             	5.89718387e+02
726             	5.89590897e+02
727             	5.89703842e+02
728             	5.89908295e+02
729             	5.90059575e+02
730             	5.89553101e+02
731             	5.89442601e+02
732             	5.89572041e+02
733             	5.89767058e+02
734             	5.89946430e+02
735             	5.90039360e+02
736             	5.90118168e+02
737             	5.90173718e+02
738             	5.90212009e+02
739             	5.90238532e+02
740             	5.90256343e+02
741             	5.90267290e+02
742             	5.89686508e+02
743             	5.89533894e+02
744             	5.89652371e+02
745             	5.89879783e+02
746             	5.90017852e+02
747             	5.90004163e+02
748             	5.90005202e+02
749             	5.90014539e+02
750             	5.90011675e+02
751             	5.90000232e+02
752             	5.89997382e+02
753             	5.90015077e+02
754             	5.90055616e+02
755             	5.90118325e+02
756             	5.90126306e+02
757             	5.90197210e+02
758             	5.90252052e+02
759             	5.89698253e+02
760             	5.89576908e+02
761             	5.89717782e+02
762             	5.89961064e+02
763             	5.89536024e+02
764             	5.89482158e+02
765             	5.89684848e+02
766             	5.89943390e+02
767             	5.89510431e+02
768             	5.89445034e+02
769             	5.89616054e+02
770             	5.89874149e+02
771             	5.90038907e+02
772             	5.89538315e+02
773             	5.89427670e+02
774             	5.89555774e+02
775             	5.89752028e+02
776             	5.89938371e+02
777             	5.90046758e+02
778             	5.90106853e+02
779             	5.90144042e+02
780             	5.90169281e+02
781             	5.90186745e+02
782             	5.90198467e+02
783             	5.90206251e+02
784             	5.90211784e+02
785             	5.90216427e+02
786             	5.90221580e+02
787             	5.90227921e+02
788             	5.90230274e+02
789             	5.90138609e+02
790             	5.90131265e+02
791             	5.90171802e+02
792             	5.90219119e+02
793             	5.90251734e+02
794             	5.90274334e+02
795             	5.90292031e+02
796             	5.90307079e+02
797             	5.90320102e+02
798             	5.89743209e+02
799             	5.89605458e+02
800             	5.89730635e+02
801             	5.89953197e+02
802             	5.90112144e+02
803             	5.89609227e+02
804             	5.89499912e+02
805             	5.89637510e+02
806             	5.89862726e+02
807             	5.90038158e+02
808             	5.89547358e+02
809             	5.89454039e+02
810             	5.89583137e+02
811             	5.89773160e+02
812             	5.89955022e+02
813             	5.90063460e+02
814             	5.90124252e+02
815             	5.90161847e+02
816             	5.90187373e+02
817             	5.90204941e+02
818             	5.90216343e+02
819             	5.90222586e+02
820             	5.90224536e+02
821             	5.90223402e+02
822             	5.90220526e+02
823             	5.90217655e+02
824             	5.90216364e+02
825             	5.90207318e+02
826             	5.90183257e+02
827             	5.90157509e+02
828             	5.90136099e+02
829             	5.90122713e+02
830             	5.90039153e+02
831             	5.90042267e+02
832             	5.90031767e+02
833             	5.90086649e+02
834             	5.90168559e+02
835             	5.90224683e+02
836             	5.90260142e+02
837             	5.90284645e+02
838             	5.89714995e+02
839             	5.89581758e+02
840             	5.89708431e+02
841             	5.89963375e+02
842             	5.89528066e+02
843             	5.89452131e+02
844             	5.89616264e+02
845             	5.89883040e+02
846             	5.89462574e+02
847             	5.89391067e+02
848             	5.89536817e+02
849             	5.89740622e+02
850             	5.89925907e+02
851             	5.90055634e+02
852             	5.90137185e+02
853             	5.90192100e+02
854             	5.90231966e+02
855             	5.90261375e+02
856             	5.90282437e+02
857             	5.90296646e+02
858             	5.90305566e+02
859             	5.90276565e+02
860             	5.90277097e+02
861             	5.90287624e+02
862             	5.90287682e+02
863             	5.90268967e+02
864             	5.90260051e+02
865             	5.90283593e+02
866             	5.90302341e+02
867             	5.90314170e+02
868             	5.90322953e+02
869             	5.90332093e+02
870             	5.90344847e+02
871             	5.89767735e+02
872             	5.89626030e+02
873             	5.89742450e+02
874             	5.89943731e+02
875             	5.90110716e+02
876             	5.90205065e+02
877             	5.90260577e+02
878             	5.90299797e+02
879             	5.89737035e+02
880             	5.89615999e+02
881             	5.89777336e+02
882             	5.89427099e+02
883             	5.89433361e+02
884             	5.89765158e+02
885             	5.89974315e+02
886             	5.89491984e+02
887             	5.89386268e+02
888             	5.89512962e+02
889             	5.89694074e+02
890             	5.89842814e+02
891             	5.89935502e+02
892             	5.89986418e+02
893             	5.90015562e+02
894             	5.90035163e+02
895             	5.90050000e+02
896             	5.90056177e+02
897             	5.90039509e+02
898             	5.90022832e+02
899             	5.90009625e+02
900             	5.90007559e+02
901             	5.90021862e+02
902             	5.90044871e+02
903             	5.90081604e+02
904             	5.90133607e+02
905             	5.90189848e+02
906             	5.90231810e+02
907             	5.90263115e+02
908             	5.90288655e+02
909             	5.89723692e+02
910             	5.89596924e+02
911             	5.89731937e+02
912             	5.89959755e+02
913             	5.90132745e+02
914             	5.89645966e+02
915             	5.89560954e+02
916             	5.89721123e+02
917             	5.89963287e+02
918             	5.90145030e+02
919             	5.89661101e+02
920             	5.89585208e+02
921             	5.89741821e+02
922             	5.89979675e+02
923             	5.90142871e+02
924             	5.89640987e+02
925             	5.89526755e+02
926             	5.89652338e+02
927             	5.89853144e+02
928             	5.90029448e+02
929             	5.90126777e+02
930             	5.89592469e+02
931             	5.89456813e+02
932             	5.89561887e+02
933             	5.89737997e+02