# Region        : cellZone component_2
# Cells         : 400
# Volume        : 8.32786770e-01
# Time          	volAverage(T)
1               	3.00085364e+02
2               	3.00170194e+02
3               	3.00250444e+02
4               	3.00327325e+02
5               	3.00402042e+02
6               	3.00475111e+02
7               	3.00546810e+02
8               	3.00617418e+02
9               	3.00687054e+02
10              	3.00755486e+02
11              	3.00822997e+02
12              	3.00889650e+02
13              	3.00955407e+02
14              	3.01020884e+02
15              	3.01085670e+02
16              	3.01149874e+02
17              	3.01212435e+02
18              	3.01274033e+02
19              	3.01336640e+02
20              	3.01399346e+02
21              	3.01460554e+02
22              	3.01520210e+02
23              	3.01577938e+02
24              	3.01633342e+02
25              	3.01687477e+02
26              	3.01739751e+02
27              	3.01790913e+02
28              	3.01840277e+02
29              	3.01889729e+02
30              	3.01938958e+02
31              	3.01988818e+02
32              	3.02039170e+02
33              	3.02089794e+02
34              	3.02140012e+02
35              	3.02189850e+02
36              	3.02239038e+02
37              	3.02288257e+02
38              	3.02336537e+02
39              	3.02381013e+02
40              	3.02421863e+02
41              	3.02461050e+02
42              	3.02502380e+02
43              	3.02545163e+02
44              	3.02587226e+02
45              	3.02628408e+02
46              	3.02668349e+02
47              	3.02708417e+02
48              	3.02747363e+02
49              	3.02786894e+02
50              	3.02825543e+02
51              	3.02864751e+02
52              	3.02902641e+02
53              	3.02941279e+02
54              	3.02979337e+02
55              	3.03017086e+02
56              	3.03053743e+02
57              	3.03089483e+02
58              	3.03125660e+02
59              	3.03160375e+02
60              	3.03196523e+02
61              	3.03232552e+02
62              	3.03265423e+02
63              	3.03290585e+02
64              	3.03317493e+02
65              	3.03345268e+02
66              	3.03373968e+02
67              	3.03402217e+02
68              	3.03428887e+02
69              	3.03456002e+02
70              	3.03482935e+02
71              	3.03509298e+02
72              	3.03535339e+02
73              	3.03560297e+02
74              	3.03584741e+02
75              	3.03609784e+02
76              	3.03634047e+02
77              	3.03658615e+02
78              	3.03682243e+02
79              	3.03706217e+02
80              	3.03729942e+02
81              	3.03752672e+02
82              	3.03775658e+02
83              	3.03798386e+02
84              	3.03820119e+02
85              	3.03842399e+02
86              	3.03863876e+02
87              	3.03885562e+02
88              	3.03906452e+02
89              	3.03928154e+02
90              	3.03949008e+02
91              	3.03970744e+02
92              	3.03991224e+02
93              	3.04011390e+02
94              	3.04032238e+02
95              	3.04052121e+02
96              	3.04071827e+02
97              	3.04091351e+02
98              	3.04111485e+02
99              	3.04130880e+02
100             	3.04150656e+02
101             	3.04169898e+02
102             	3.04188925e+02
103             	3.04207794e+02
104             	3.04227018e+02
105             	3.04246108e+02
106             	3.04264660e+02
107             	3.04282994e+02
108             	3.04301207e+02
109             	3.04319032e+02
110             	3.04336686e+02
111             	3.04354759e+02
112             	3.04372281e+02
113             	3.04389910e+02
114             	3.04407497e+02
115             	3.04424981e+02
116             	3.04442464e+02
117             	3.04459660e+02
118             	3.04476920e+02
119             	3.04494019e+02
120             	3.04511013e+02
121             	3.04527695e+02
122             	3.04544246e+02
123             	3.04560855e+02
124             	3.04576899e+02
125             	3.04592713e+02
126             	3.04608485e+02
127             	3.04624066e+02
128             	3.04639682e+02
129             	3.04655107e+02
130             	3.04670535e+02
131             	3.04685924e+02
132             	3.04701030e+02
133             	3.04716201e+02
134             	3.04731153e+02
135             	3.04745675e+02
136             	3.04760249e+02
137             	3.04774686e+02
138             	3.04789028e+02
139             	3.04803194e+02
140             	3.04817228e+02
141             	3.04831163e+02
142             	3.04844974e+02
143             	3.04858742e+02
144             	3.04872362e+02
145             	3.04885926e+02
146             	3.04899398e+02
147             	3.04912690e+02
148             	3.04925671e+02
149             	3.04938513e+02
150             	3.04951061e+02
151             	3.04963388e+02
152             	3.04975453e+02
153             	3.04987149e+02
154             	3.04998767e+02
155             	3.05010309e+02
156             	3.05021570e+02
157             	3.05032687e+02
158             	3.05043694e+02
159             	3.05054602e+02
160             	3.05065376e+02
161             	3.05076010e+02
162             	3.05086489e+02
163             	3.05096665e+02
164             	3.05106836e+02
165             	3.05116934e+02
166             	3.05126933e+02
167             	3.05136824e+02
168             	3.05146621e+02
169             	3.05155967e+02
170             	3.05165480e+02
171             	3.05174765e+02
172             	3.05184083e+02
173             	3.05193293e+02
174             	3.05202338e+02
175             	3.05211348e+02
176             	3.05220199e+02
177             	3.05228801e+02
178             	3.05237217e+02
179             	3.05245451e+02
180             	3.05253353e+02
181             	3.05261151e+02
182             	3.05268711e+02
183             	3.05276203e+02
184             	3.05283547e+02
185             	3.05290711e+02
186             	3.05297747e+02
187             	3.05304675e+02
188             	3.05311444e+02
189             	3.05318065e+02
190             	3.05324660e+02
191             	3.05331146e+02
192             	3.05337684e+02
193             	3.05344221e+02
194             	3.05350686e+02
195             	3.05357088e+02
196             	3.05363420e+02
197             	3.05369734e+02
198             	3.05375988e+02
199             	3.05382137e+02
200             	3.05388148e+02
201             	3.05394081e+02
202             	3.05399895e+02
203             	3.05405589e+02
204             	3.05411205e+02
205             	3.05416831e+02
206             	3.05422423e+02
207             	3.05428017e+02
208             	3.05433637e+02
209             	3.05439301e+02
210             	3.05444981e+02
211             	3.05450768e+02
212             	3.05456537e+02
213             	3.05462354e+02
214             	3.05468170e+02
215             	3.05473982e+02
216             	3.05479842e+02
217             	3.05485838e+02
218             	3.05491890e+02
219             	3.05497970e+02
220             	3.05504300e+02
221             	3.05510551e+02
222             	3.05516635e+02
223             	3.05522711e+02
224             	3.05528766e+02
225             	3.05534727e+02
226             	3.05540549e+02
227             	3.05546192e+02
228             	3.05551713e+02
229             	3.05557285e+02
230             	3.05562879e+02
231             	3.05568432e+02
232             	3.05573949e+02
233             	3.05579427e+02
234             	3.05584900e+02
235             	3.05590426e+02
236             	3.05595816e+02
237             	3.05601193e+02
238             	3.05606394e+02
239             	3.05611556e+02
240             	3.05616633e+02
241             	3.05621658e+02
242             	3.05626603e+02
243             	3.05631455e+02
244             	3.05636175e+02
245             	3.05640744e+02
246             	3.05645161e+02
247             	3.05649449e+02
248             	3.05653605e+02
249             	3.05657543e+02
250             	3.05661333e+02
251             	3.05664934e+02
252             	3.05668340e+02
253             	3.05671550e+02
254             	3.05674622e+02
255             	3.05677638e+02
256             	3.05680622e+02
257             	3.05683548e+02
258             	3.05686431e+02
259             	3.05689312e+02
260             	3.05692209e+02
261             	3.05695168e+02
262             	3.05698099e+02
263             	3.05701070e+02
264             	3.05704032e+02
265             	3.05706985e+02
266             	3.05710019e+02
267             	3.05713030e+02
268             	3.05716159e+02
269             	3.05719349e+02
270             	3.05722571e+02
271             	3.05725797e+02
272             	3.05729069e+02
273             	3.05732472e+02
274             	3.05735905e+02
275             	3.05739244e+02
276             	3.05742627e+02
277             	3.05745961e+02
278             	3.05749215e+02
279             	3.05752389e+02
280             	3.05755648e+02
281             	3.05758820e+02
282             	3.05761996e+02
283             	3.05765137e+02
284             	3.05768244e+02
285             	3.05771441e+02
286             	3.05774624e+02
287             	3.05777762e+02
288             	3.05780804e+02
289             	3.05783807e+02
290             	3.05786724e+02
291             	3.05789609e+02
292             	3.05792488e+02
293             	3.05795480e+02
294             	3.05798437e+02
295             	3.05801412e+02
296             	3.05804371e+02
297             	3.05807298e+02
298             	3.05810229e+02
299             	3.05813240e+02
300             	3.05816235e+02
301             	3.05819106e+02
302             	3.05821982e+02
303             	3.05824740e+02
304             	3.05827416e+02
305             	3.05830040e+02
306             	3.05832534e+02
307             	3.05835013e+02
308             	3.05837423e+02
309             	3.05839727e+02
310             	3.05841977e+02
311             	3.05844225e+02
312             	3.05846384e+02
313             	3.05848419e+02
314             	3.05850338e+02
315             	3.05852143e+02
316             	3.05853817e+02
317             	3.05855450e+02
318             	3.05857036e+02
319             	3.05858636e+02
320             	3.05860219e+02
321             	3.05861787e+02
322             	3.05863337e+02
323             	3.05864904e+02
324             	3.05866550e+02
325             	3.05868219e+02
326             	3.05869900e+02
327             	3.05871567e+02
328             	3.05873230e+02
329             	3.05874890e+02
330             	3.05876543e+02
331             	3.05878203e+02
332             	3.05879907e+02
333             	3.05881617e+02
334             	3.05883283e+02
335             	3.05884980e+02
336             	3.05886676e+02
337             	3.05888394e+02
338             	3.05890119e+02
339             	3.05891823e+02
340             	3.05893468e+02
341             	3.05895085e+02
342             	3.05896664e+02
343             	3.05898194e+02
344             	3.05899669e+02
345             	3.05901165e+02
346             	3.05902688e+02
347             	3.05904179e+02
348             	3.05905667e+02
349             	3.05907151e+02
350             	3.05908674e+02
351             	3.05910242e+02
352             	3.05911826e+02
353             	3.05913416e+02
354             	3.05915025e+02
355             	3.05916626e+02
356             	3.05918250e+02
357             	3.05919895e+02
358             	3.05921555e+02
359             	3.05923245e+02
360             	3.05924982e+02
361             	3.05926700e+02
362             	3.05928444e+02
363             	3.05930200e+02
364             	3.05931964e+02
365             	3.05933714e+02
366             	3.05935506e+02
367             	3.05937288e+02
368             	3.05938990e+02
369             	3.05940690e+02
370             	3.05942366e+02
371             	3.05944011e+02
372             	3.05945597e+02
373             	3.05947149e+02
374             	3.05948642e+02
375             	3.05950049e+02
376             	3.05951396e+02
377             	3.05952679e+02
378             	3.05953902e+02
379             	3.05955066e+02
380             	3.05956169e+02
381             	3.05957194e+02
382             	3.05958171e+02
383             	3.05959097e+02
384             	3.05959983e+02
385             	3.05960824e+02
386             	3.05961624e+02
387             	3.05962392e+02
388             	3.05963136e+02
389             	3.05963862e+02
390             	3.05964577e+02
391             	3.05965283e+02
392             	3.05965979e+02
393             	3.05966687e+02
394             	3.05967400e+02
395             	3.05968121e+02
396             	3.05968851e+02
397             	3.05969591e+02
398             	3.05970342e+02
399             	3.05971101e+02
400             	3.05971861e+02
401             	3.05972638e+02
402             	3.05973429e+02
403             	3.05974243e+02
404             	3.05975053e+02
405             	3.05975884e+02
406             	3.05976728e+02
407             	3.05977586e+02
408             	3.05978456e+02
409             	3.05979324e+02
410             	3.05980205e+02
411             	3.05981102e+02
412             	3.05982004e+02
413             	3.05982906e+02
414             	3.05983815e+02
415             	3.05984728e+02
416             	3.05985642e+02
417             	3.05986556e+02
418             	3.05987468e+02
419             	3.05988378e+02
420             	3.05989282e+02
421             	3.05990183e+02
422             	3.05991074e+02
423             	3.05991955e+02
424             	3.05992822e+02
425             	3.05993682e+02
426             	3.05994525e+02
427             	3.05995365e+02
428             	3.05996193e+02
429             	3.05997008e+02
430             	3.05997812e+02
431             	3.05998604e+02
432             	3.05999383e+02
433             	3.06000146e+02
434             	3.06000888e+02
435             	3.06001623e+02
436             	3.06002346e+02
437             	3.06003052e+02
438             	3.06003744e+02
439             	3.06004420e+02
440             	3.06005080e+02
441             	3.06005729e+02
442             	3.06006365e+02
443             	3.06006991e+02
444             	3.06007605e+02
445             	3.06008207e+02
446             	3.06008796e+02
447             	3.06009372e+02
448             	3.06009927e+02
449             	3.06010471e+02
450             	3.06011006e+02
451             	3.06011525e+02
452             	3.06012030e+02
453             	3.06012524e+02
454             	3.06013004e+02
455             	3.06013470e+02
456             	3.06013922e+02
457             	3.06014360e+02
458             	3.06014784e+02
459             	3.06015196e+02
460             	3.06015596e+02
461             	3.06015987e+02
462             	3.06016370e+02
463             	3.06016746e+02
464             	3.06017117e+02
465             	3.06017483e+02
466             	3.06017846e+02
467             	3.06018206e+02
468             	3.06018566e+02
469             	3.06018927e+02
470             	3.06019291e+02
471             	3.06019659e+02
472             	3.06020033e+02
473             	3.06020415e+02
474             	3.06020806e+02
475             	3.06021210e+02
476             	3.06021625e+02
477             	3.06022054e+02
478             	3.06022497e+02
479             	3.06022954e+02
480             	3.06023424e+02
481             	3.06023905e+02
482             	3.06024398e+02
483             	3.06024903e+02
484             	3.06025417e+02
485             	3.06025940e+02
486             	3.06026470e+02
487             	3.06027006e+02
488             	3.06027546e+02
489             	3.06028088e+02
490             	3.06028629e+02
491             	3.06029167e+02
492             	3.06029700e+02
493             	3.06030226e+02
494             	3.06030743e+02
495             	3.06031251e+02
496             	3.06031746e+02
497             	3.06032229e+02
498             	3.06032697e+02
499             	3.06033149e+02
500             	3.06033585e+02
501             	3.06034003e+02
502             	3.06034403e+02
503             	3.06034786e+02
504             	3.06035150e+02
505             	3.06035496e+02
506             	3.06035825e+02
507             	3.06036137e+02
508             	3.06036433e+02
509             	3.06036716e+02
510             	3.06036984e+02
511             	3.06037241e+02
512             	3.06037489e+02
513             	3.06037727e+02
514             	3.06037960e+02
515             	3.06038189e+02
516             	3.06038414e+02
517             	3.06038636e+02
518             	3.06038858e+02
519             	3.06039079e+02
520             	3.06039302e+02
521             	3.06039526e+02
522             	3.06039750e+02
523             	3.06039979e+02
524             	3.06040210e+02
525             	3.06040444e+02
526             	3.06040682e+02
527             	3.06040925e+02
528             	3.06041173e+02
529             	3.06041426e+02
530             	3.06041684e+02
531             	3.06041940e+02
532             	3.06042202e+02
533             	3.06042473e+02
534             	3.06042747e+02
535             	3.06043024e+02
536             	3.06043303e+02
537             	3.06043583e+02
538             	3.06043865e+02
539             	3.06044148e+02
540             	3.06044429e+02
541             	3.06044711e+02
542             	3.06044992e+02
543             	3.06045271e+02
544             	3.06045551e+02
545             	3.06045833e+02
546             	3.06046113e+02
547             	3.06046394e+02
548             	3.06046674e+02
549             	3.06046951e+02
550             	3.06047227e+02
551             	3.06047505e+02
552             	3.06047788e+02
553             	3.06048071e+02
554             	3.06048353e+02
555             	3.06048635e+02
556             	3.06048914e+02
557             	3.06049191e+02
558             	3.06049462e+02
559             	3.06049727e+02
560             	3.06049983e+02
561             	3.06050231e+02
562             	3.06050474e+02
563             	3.06050706e+02
564             	3.06050929e+02
565             	3.06051145e+02
566             	3.06051353e+02
567             	3.06051551e+02
568             	3.06051742e+02
569             	3.06051924e+02
570             	3.06052098e+02
571             	3.06052262e+02
572             	3.06052420e+02
573             	3.06052575e+02
574             	3.06052723e+02
575             	3.06052868e+02
576             	3.06053010e+02
577             	3.06053150e+02
578             	3.06053291e+02
579             	3.06053423e+02
580             	3.06053552e+02
581             	3.06053677e+02
582             	3.06053799e+02
583             	3.06053918e+02
584             	3.06054031e+02
585             	3.06054143e+02
586             	3.06054256e+02
587             	3.06054368e+02
588             	3.06054481e+02
589             	3.06054596e+02
590             	3.06054715e+02
591             	3.06054832e+02
592             	3.06054953e+02
593             	3.06055076e+02
594             	3.06055204e+02
595             	3.06055336e+02
596             	3.06055474e+02
597             	3.06055615e+02
598             	3.06055750e+02
599             	3.06055890e+02
600             	3.06056033e+02
601             	3.06056179e+02
602             	3.06056329e+02
603             	3.06056474e+02
604             	3.06056618e+02
605             	3.06056763e+02
606             	3.06056913e+02
607             	3.06057070e+02
608             	3.06057231e+02
609             	3.06057397e+02
610             	3.06057575e+02
611             	3.06057759e+02
612             	3.06057944e+02
613             	3.06058125e+02
614             	3.06058307e+02
615             	3.06058489e+02
616             	3.06058673e+02
617             	3.06058852e+02
618             	3.06059031e+02
619             	3.06059201e+02
620             	3.06059376e+02
621             	3.06059554e+02
622             	3.06059733e+02
623             	3.06059914e+02
624             	3.06060095e+02
625             	3.06060274e+02
626             	3.06060450e+02
627             	3.06060624e+02
628             	3.06060792e+02
629             	3.06060951e+02
630             	3.06061103e+02
631             	3.06061243e+02
632             	3.06061372e+02
633             	3.06061493e+02
634             	3.06061606e+02
635             	3.06061711e+02
636             	3.06061809e+02
637             	3.06061905e+02
638             	3.06061999e+02
639             	3.06062087e+02
640             	3.06062177e+02
641             	3.06062271e+02
642             	3.06062368e+02
643             	3.06062464e+02
644             	3.06062559e+02
645             	3.06062655e+02
646             	3.06062753e+02
647             	3.06062852e+02
648             	3.06062953e+02
649             	3.06063047e+02
650             	3.06063133e+02
651             	3.06063216e+02
652             	3.06063293e+02
653             	3.06063366e+02
654             	3.06063429e+02
655             	3.06063499e+02
656             	3.06063573e+02
657             	3.06063653e+02
658             	3.06063738e+02
659             	3.06063829e+02
660             	3.06063924e+02
661             	3.06064027e+02
662             	3.06064135e+02
663             	3.06064248e+02
664             	3.06064361e+02
665             	3.06064474e+02
666             	3.06064584e+02
667             	3.06064688e+02
668             	3.06064790e+02
669             	3.06064890e+02
670             	3.06064983e+02
671             	3.06065070e+02
672             	3.06065154e+02
673             	3.06065239e+02
674             	3.06065324e+02
675             	3.06065411e+02
676             	3.06065505e+02
677             	3.06065602e+02
678             	3.06065700e+02
679             	3.06065803e+02
680             	3.06065919e+02
681             	3.06066044e+02
682             	3.06066176e+02
683             	3.06066313e+02
684             	3.06066457e+02
685             	3.06066603e+02
686             	3.06066749e+02
687             	3.06066900e+02
688             	3.06067046e+02
689             	3.06067188e+02
690             	3.06067324e+02
691             	3.06067453e+02
692             	3.06067577e+02
693             	3.06067694e+02
694             	3.06067806e+02
695             	3.06067913e+02
696             	3.06068015e+02
697             	3.06068112e+02
698             	3.06068203e+02
699             	3.06068298e+02
700             	3.06068394e+02
701             	3.06068489e+02
702             	3.06068582e+02
703             	3.06068674e+02
704             	3.06068771e+02
705             	3.06068869e+02
706             	3.06068961e+02
707             	3.06069045e+02
708             	3.06069123e+02
709             	3.06069198e+02
710             	3.06069262e+02
711             	3.06069322e+02
712             	3.06069384e+02
713             	3.06069446e+02
714             	3.06069509e+02
715             	3.06069570e+02
716             	3.06069629e+02
717             	3.06069688e+02
718             	3.06069749e+02
719             	3.06069812e+02
720             	3.06069872e+02
721             	3.06069925e+02
722             	3.06069973e+02
723             	3.06070019e+02
724             	3.06070062e+02
725             	3.06070101e+02
726             	3.06070139e+02
727             	3.06070174e+02
728             	3.06070202e+02
729             	3.06070231e+02
730             	3.06070269e+02
731             	3.06070313e+02
732             	3.06070357e+02
733             	3.06070403e+02
734             	3.06070450e+02
735             	3.06070505e+02
736             	3.06070560e+02
737             	3.06070609e+02
738             	3.06070658e+02
739             	3.06070707e+02
740             	3.06070752e+02
741             	3.06070795e+02
742             	3.06070836e+02
743             	3.06070873e+02
744             	3.06070914e+02
745             	3.06070959e+02
746             	3.06071006e+02
747             	3.06071049e+02
748             	3.06071104e+02
749             	3.06071169e+02
750             	3.06071241e+02
751             	3.06071319e+02
752             	3.06071402e+02
753             	3.06071489e+02
754             	3.06071578e+02
755             	3.06071669e+02
756             	3.06071760e+02
757             	3.06071851e+02
758             	3.06071939e+02
759             	3.06072022e+02
760             	3.06072100e+02
761             	3.06072171e+02
762             	3.06072238e+02
763             	3.06072305e+02
764             	3.06072375e+02
765             	3.06072445e+02
766             	3.06072519e+02
767             	3.06072592e+02
768             	3.06072669e+02
769             	3.06072744e+02
770             	3.06072818e+02
771             	3.06072898e+02
772             	3.06072982e+02
773             	3.06073070e+02
774             	3.06073160e+02
775             	3.06073250e+02
776             	3.06073338e+02
777             	3.06073429e+02
778             	3.06073513e+02
779             	3.06073588e+02
780             	3.06073651e+02
781             	3.06073695e+02
782             	3.06073734e+02
783             	3.06073772e+02
784             	3.06073810e+02
785             	3.06073845e+02
786             	3.06073876e+02
787             	3.06073910e+02
788             	3.06073943e+02
789             	3.06073967e+02
790             	3.06073984e+02
791             	3.06073997e+02
792             	3.06074007e+02
793             	3.06074014e+02
794             	3.06074020e+02
795             	3.06074026e+02
796             	3.06074032e+02
797             	3.06074042e+02
798             	3.06074052e+02
799             	3.06074061e+02
800             	3.06074082e+02
801             	3.06074110e+02
802             	3.06074142e+02
803             	3.06074177e+02
804             	3.06074215e+02
805             	3.06074261e+02
806             	3.06074309e+02
807             	3.06074348e+02
808             	3.06074382e+02
809             	3.06074415e+02
810             	3.06074450e+02
811             	3.06074490e+02
812             	3.06074532e+02
813             	3.06074578e+02
814             	3.06074625e+02
815             	3.06074667e+02
816             	3.06074715e+02
817             	3.06074770e+02
818             	3.06074834e+02
819             	3.06074905e+02
820             	3.06074983e+02
821             	3.06075067e+02
822             	3.06075158e+02
823             	3.06075252e+02
824             	3.06075347e+02
825             	3.06075439e+02
826             	3.06075530e+02
827             	3.06075617e+02
828             	3.06075700e+02
829             	3.06075778e+02
830             	3.06075855e+02
831             	3.06075925e+02
832             	3.06075991e+02
833             	3.06076050e+02
834             	3.06076104e+02
835             	3.06076152e+02
836             	3.06076196e+02
837             	3.06076236e+02
838             	3.06076271e+02
839             	3.06076308e+02
840             	3.06076339e+02
841             	3.06076375e+02
842             	3.06076416e+02
843             	3.06076459e+02
844             	3.06076503e+02
845             	3.06076547e+02
846             	3.06076589e+02
847             	3.06076631e+02
848             	3.06076671e+02
849             	3.06076704e+02
850             	3.06076733e+02
851             	3.06076763e+02
852             	3.06076788e+02
853             	3.06076808e+02
854             	3.06076826e+02
855             	3.06076843e+02
856             	3.06076860e+02
857             	3.06076875e+02
858             	3.06076883e+02
859             	3.06076897e+02
860             	3.06076916e+02
861             	3.06076939e+02
862             	3.06076967e+02
863             	3.06076997e+02
864             	3.06077033e+02
865             	3.06077070e+02
866             	3.06077110e+02
867             	3.06077150e+02
868             	3.06077190e+02
869             	3.06077232e+02
870             	3.06077271e+02
871             	3.06077308e+02
872             	3.06077348e+02
873             	3.06077387e+02
874             	3.06077424e+02
875             	3.06077465e+02
876             	3.06077506e+02
877             	3.06077547e+02
878             	3.06077588e+02
879             	3.06077638e+02
880             	3.06077694e+02
881             	3.06077755e+02
882             	3.06077821e+02
883             	3.06077888e+02
884             	3.06077958e+02
885             	3.06078029e+02
886             	3.06078097e+02
887             	3.06078161e+02
888             	3.06078217e+02
889             	3.06078270e+02
890             	3.06078318e+02
891             	3.06078362e+02
892             	3.06078403e+02
893             	3.06078441e+02
894             	3.06078475e+02
895             	3.06078507e+02
896             	3.06078537e+02
897             	3.06078562e+02
898             	3.06078585e+02
899             	3.06078611e+02
900             	3.06078641e+02
901             	3.06078672e+02
902             	3.06078705e+02
903             	3.06078738e+02
904             	3.06078769e+02
905             	3.06078799e+02
906             	3.06078825e+02
907             	3.06078847e+02
908             	3.06078865e+02
909             	3.06078879e+02
910             	3.06078893e+02
911             	3.06078902e+02
912             	3.06078905e+02
913             	3.06078903e+02
914             	3.06078899e+02
915             	3.06078892e+02
916             	3.06078884e+02
917             	3.06078875e+02
918             	3.06078869e+02
919             	3.06078865e+02
920             	3.06078865e+02
921             	3.06078870e+02
922             	3.06078880e+02
923             	3.06078892e+02
924             	3.06078910e+02
925             	3.06078934e+02
926             	3.06078964e+02
927             	3.06078998e+02
928             	3.06079036e+02
929             	3.06079078e+02
930             	3.06079122e+02
931             	3.06079168e+02
932             	3.06079216e+02
933             	3.06079263e+02