# Region        : cellZone component_3
# Cells         : 216
# Volume        : 4.13260620e-01
# Time          	volAverage(T)
1               	3.00774805e+02
2               	3.01533724e+02
3               	3.02175771e+02
4               	3.02737388e+02
5               	3.03274586e+02
6               	3.03805326e+02
7               	3.04323559e+02
8               	3.04825324e+02
9               	3.05312610e+02
10              	3.05790564e+02
11              	3.06262917e+02
12              	3.06736286e+02
13              	3.07195204e+02
14              	3.07651869e+02
15              	3.08090023e+02
16              	3.08522826e+02
17              	3.08929188e+02
18              	3.09310149e+02
19              	3.09664656e+02
20              	3.10001919e+02
21              	3.10318856e+02
22              	3.10619923e+02
23              	3.10918820e+02
24              	3.11214259e+02
25              	3.11501653e+02
26              	3.11790822e+02
27              	3.12097848e+02
28              	3.12392531e+02
29              	3.12683109e+02
30              	3.12974120e+02
31              	3.13244374e+02
32              	3.13494885e+02
33              	3.13716892e+02
34              	3.13922988e+02
35              	3.14117959e+02
36              	3.14300207e+02
37              	3.14464752e+02
38              	3.14618391e+02
39              	3.14767760e+02
40              	3.14922460e+02
41              	3.15076394e+02
42              	3.15242570e+02
43              	3.15421197e+02
44              	3.15618831e+02
45              	3.15838753e+02
46              	3.16057811e+02
47              	3.16267610e+02
48              	3.16471137e+02
49              	3.16654313e+02
50              	3.16816902e+02
51              	3.16955221e+02
52              	3.17076645e+02
53              	3.17185063e+02
54              	3.17278262e+02
55              	3.17364365e+02
56              	3.17454351e+02
57              	3.17554230e+02
58              	3.17661592e+02
59              	3.17778972e+02
60              	3.17881892e+02
61              	3.17966366e+02
62              	3.18042357e+02
63              	3.18116496e+02
64              	3.18187218e+02
65              	3.18249927e+02
66              	3.18310327e+02
67              	3.18368459e+02
68              	3.18417161e+02
69              	3.18452780e+02
70              	3.18490198e+02
71              	3.18534031e+02
72              	3.18579346e+02
73              	3.18645880e+02
74              	3.18740109e+02
75              	3.18815820e+02
76              	3.18864430e+02
77              	3.18926749e+02
78              	3.18977054e+02
79              	3.19017607e+02
80              	3.19055046e+02
81              	3.19092789e+02
82              	3.19136875e+02
83              	3.19180422e+02
84              	3.19220309e+02
85              	3.19258340e+02
86              	3.19298811e+02
87              	3.19341923e+02
88              	3.19385976e+02
89              	3.19443995e+02
90              	3.19513259e+02
91              	3.19589601e+02
92              	3.19663652e+02
93              	3.19745117e+02
94              	3.19834307e+02
95              	3.19922789e+02
96              	3.20001151e+02
97              	3.20057849e+02
98              	3.20103400e+02
99              	3.20154039e+02
100             	3.20205031e+02
101             	3.20255915e+02
102             	3.20305148e+02
103             	3.20350801e+02
104             	3.20396576e+02
105             	3.20435531e+02
106             	3.20468714e+02
107             	3.20503129e+02
108             	3.20524673e+02
109             	3.20551216e+02
110             	3.20570463e+02
111             	3.20586162e+02
112             	3.20608323e+02
113             	3.20645192e+02
114             	3.20698939e+02
115             	3.20772605e+02
116             	3.20855976e+02
117             	3.20939090e+02
118             	3.21020380e+02
119             	3.21099827e+02
120             	3.21140888e+02
121             	3.21149340e+02
122             	3.21151395e+02
123             	3.21155120e+02
124             	3.21153101e+02
125             	3.21163030e+02
126             	3.21185152e+02
127             	3.21212114e+02
128             	3.21239176e+02
129             	3.21260752e+02
130             	3.21285004e+02
131             	3.21293201e+02
132             	3.21291268e+02
133             	3.21296922e+02
134             	3.21310044e+02
135             	3.21322913e+02
136             	3.21347514e+02
137             	3.21391602e+02
138             	3.21459831e+02
139             	3.21544351e+02
140             	3.21620088e+02
141             	3.21687775e+02
142             	3.21722420e+02
143             	3.21731066e+02
144             	3.21751970e+02
145             	3.21747535e+02
146             	3.21736958e+02
147             	3.21746933e+02
148             	3.21756869e+02
149             	3.21759701e+02
150             	3.21760537e+02
151             	3.21747773e+02
152             	3.21731394e+02
153             	3.21725165e+02
154             	3.21730859e+02
155             	3.21743345e+02
156             	3.21763255e+02
157             	3.21783144e+02
158             	3.21807837e+02
159             	3.21841123e+02
160             	3.21876730e+02
161             	3.21915737e+02
162             	3.21960868e+02
163             	3.22009417e+02
164             	3.22056761e+02
165             	3.22104469e+02
166             	3.22150333e+02
167             	3.22188182e+02
168             	3.22200775e+02
169             	3.22213444e+02
170             	3.22218958e+02
171             	3.22217406e+02
172             	3.22212283e+02
173             	3.22205064e+02
174             	3.22195099e+02
175             	3.22184757e+02
176             	3.22178348e+02
177             	3.22174569e+02
178             	3.22171685e+02
179             	3.22178538e+02
180             	3.22191868e+02
181             	3.22216445e+02
182             	3.22255674e+02
183             	3.22304085e+02
184             	3.22358529e+02
185             	3.22418846e+02
186             	3.22472463e+02
187             	3.22522634e+02
188             	3.22563496e+02
189             	3.22598410e+02
190             	3.22627321e+02
191             	3.22640782e+02
192             	3.22641104e+02
193             	3.22641646e+02
194             	3.22645695e+02
195             	3.22654724e+02
196             	3.22668120e+02
197             	3.22681599e+02
198             	3.22691972e+02
199             	3.22691576e+02
200             	3.22700274e+02
201             	3.22721152e+02
202             	3.22746961e+02
203             	3.22782032e+02
204             	3.22823968e+02
205             	3.22870799e+02
206             	3.22922455e+02
207             	3.22980771e+02
208             	3.23033539e+02
209             	3.23084124e+02
210             	3.23131321e+02
211             	3.23171563e+02
212             	3.23202719e+02
213             	3.23223649e+02
214             	3.23237451e+02
215             	3.23246219e+02
216             	3.23244011e+02
217             	3.23245964e+02
218             	3.23255792e+02
219             	3.23274721e+02
220             	3.23300400e+02
221             	3.23330416e+02
222             	3.23362006e+02
223             	3.23393971e+02
224             	3.23427056e+02
225             	3.23460054e+02
226             	3.23498105e+02
227             	3.23538940e+02
228             	3.23573591e+02
229             	3.23598859e+02
230             	3.23616142e+02
231             	3.23618178e+02
232             	3.23621996e+02
233             	3.23631582e+02
234             	3.23644463e+02
235             	3.23655702e+02
236             	3.23672742e+02
237             	3.23695403e+02
238             	3.23722249e+02
239             	3.23750603e+02
240             	3.23775997e+02
241             	3.23803898e+02
242             	3.23829649e+02
243             	3.23852390e+02
244             	3.23875211e+02
245             	3.23899051e+02
246             	3.23922026e+02
247             	3.23942744e+02
248             	3.23963352e+02
249             	3.23983825e+02
250             	3.23999545e+02
251             	3.24012982e+02
252             	3.24024365e+02
253             	3.24033648e+02
254             	3.24040561e+02
255             	3.24045383e+02
256             	3.24043347e+02
257             	3.24044436e+02
258             	3.24053587e+02
259             	3.24068284e+02
260             	3.24086748e+02
261             	3.24108730e+02
262             	3.24133155e+02
263             	3.24158863e+02
264             	3.24183930e+02
265             	3.24206753e+02
266             	3.24226297e+02
267             	3.24244226e+02
268             	3.24260655e+02
269             	3.24279459e+02
270             	3.24298007e+02
271             	3.24316127e+02
272             	3.24332388e+02
273             	3.24351296e+02
274             	3.24372649e+02
275             	3.24396238e+02
276             	3.24419358e+02
277             	3.24434244e+02
278             	3.24448796e+02
279             	3.24462831e+02
280             	3.24475196e+02
281             	3.24485287e+02
282             	3.24495524e+02
283             	3.24505559e+02
284             	3.24516757e+02
285             	3.24530647e+02
286             	3.24546403e+02
287             	3.24561213e+02
288             	3.24578713e+02
289             	3.24597473e+02
290             	3.24614355e+02
291             	3.24630552e+02
292             	3.24645350e+02
293             	3.24658199e+02
294             	3.24668673e+02
295             	3.24675850e+02
296             	3.24682982e+02
297             	3.24688493e+02
298             	3.24692370e+02
299             	3.24693766e+02
300             	3.24696330e+02
301             	3.24702718e+02
302             	3.24712853e+02
303             	3.24724341e+02
304             	3.24736446e+02
305             	3.24752245e+02
306             	3.24771106e+02
307             	3.24786838e+02
308             	3.24799701e+02
309             	3.24810737e+02
310             	3.24820742e+02
311             	3.24827809e+02
312             	3.24834139e+02
313             	3.24842504e+02
314             	3.24850813e+02
315             	3.24859867e+02
316             	3.24868969e+02
317             	3.24880913e+02
318             	3.24893809e+02
319             	3.24904637e+02
320             	3.24913568e+02
321             	3.24920632e+02
322             	3.24926489e+02
323             	3.24931683e+02
324             	3.24935084e+02
325             	3.24935804e+02
326             	3.24935412e+02
327             	3.24933906e+02
328             	3.24931477e+02
329             	3.24929252e+02
330             	3.24927235e+02
331             	3.24927092e+02
332             	3.24928102e+02
333             	3.24930292e+02
334             	3.24932688e+02
335             	3.24938018e+02
336             	3.24946475e+02
337             	3.24957046e+02
338             	3.24966840e+02
339             	3.24975620e+02
340             	3.24986553e+02
341             	3.24998564e+02
342             	3.25008806e+02
343             	3.25015943e+02
344             	3.25019842e+02
345             	3.25021396e+02
346             	3.25023157e+02
347             	3.25023568e+02
348             	3.25022397e+02
349             	3.25020854e+02
350             	3.25019218e+02
351             	3.25018266e+02
352             	3.25019614e+02
353             	3.25024708e+02
354             	3.25033185e+02
355             	3.25043904e+02
356             	3.25055909e+02
357             	3.25068209e+02
358             	3.25080107e+02
359             	3.25090079e+02
360             	3.25099197e+02
361             	3.25107476e+02
362             	3.25114817e+02
363             	3.25120827e+02
364             	3.25124678e+02
365             	3.25127451e+02
366             	3.25130195e+02
367             	3.25133350e+02
368             	3.25137034e+02
369             	3.25140551e+02
370             	3.25145195e+02
371             	3.25150659e+02
372             	3.25156007e+02
373             	3.25160483e+02
374             	3.25164793e+02
375             	3.25169568e+02
376             	3.25174840e+02
377             	3.25178554e+02
378             	3.25182372e+02
379             	3.25186212e+02
380             	3.25189921e+02
381             	3.25193272e+02
382             	3.25196353e+02
383             	3.25198053e+02
384             	3.25199607e+02
385             	3.25200669e+02
386             	3.25201776e+02
387             	3.25202020e+02
388             	3.25203300e+02
389             	3.25205106e+02
390             	3.25206756e+02
391             	3.25207501e+02
392             	3.25207454e+02
393             	3.25207190e+02
394             	3.25206809e+02
395             	3.25206228e+02
396             	3.25205082e+02
397             	3.25203993e+02
398             	3.25203328e+02
399             	3.25203088e+02
400             	3.25203484e+02
401             	3.25204060e+02
402             	3.25204656e+02
403             	3.25206308e+02
404             	3.25209663e+02
405             	3.25213771e+02
406             	3.25218683e+02
407             	3.25224138e+02
408             	3.25229309e+02
409             	3.25232915e+02
410             	3.25236846e+02
411             	3.25240830e+02
412             	3.25243345e+02
413             	3.25246046e+02
414             	3.25249576e+02
415             	3.25253007e+02
416             	3.25256830e+02
417             	3.25259862e+02
418             	3.25262346e+02
419             	3.25264560e+02
420             	3.25266601e+02
421             	3.25268978e+02
422             	3.25271782e+02
423             	3.25272470e+02
424             	3.25274384e+02
425             	3.25277315e+02
426             	3.25280151e+02
427             	3.25282668e+02
428             	3.25284444e+02
429             	3.25286073e+02
430             	3.25287965e+02
431             	3.25289695e+02
432             	3.25291268e+02
433             	3.25292751e+02
434             	3.25295110e+02
435             	3.25297814e+02
436             	3.25301467e+02
437             	3.25306150e+02
438             	3.25311028e+02
439             	3.25315646e+02
440             	3.25319670e+02
441             	3.25323095e+02
442             	3.25326095e+02
443             	3.25328784e+02
444             	3.25331939e+02
445             	3.25334352e+02
446             	3.25336271e+02
447             	3.25338304e+02
448             	3.25340500e+02
449             	3.25342257e+02
450             	3.25344366e+02
451             	3.25346605e+02
452             	3.25348850e+02
453             	3.25351432e+02
454             	3.25353746e+02
455             	3.25356227e+02
456             	3.25358435e+02
457             	3.25360699e+02
458             	3.25362896e+02
459             	3.25364991e+02
460             	3.25367101e+02
461             	3.25369379e+02
462             	3.25371786e+02
463             	3.25374175e+02
464             	3.25376774e+02
465             	3.25379448e+02
466             	3.25382084e+02
467             	3.25384563e+02
468             	3.25386713e+02
469             	3.25388558e+02
470             	3.25390477e+02
471             	3.25392651e+02
472             	3.25394953e+02
473             	3.25397373e+02
474             	3.25399923e+02
475             	3.25402587e+02
476             	3.25405237e+02
477             	3.25407949e+02
478             	3.25410610e+02
479             	3.25413089e+02
480             	3.25415231e+02
481             	3.25416820e+02
482             	3.25418182e+02
483             	3.25419301e+02
484             	3.25420098e+02
485             	3.25420631e+02
486             	3.25420995e+02
487             	3.25421292e+02
488             	3.25421594e+02
489             	3.25421902e+02
490             	3.25422224e+02
491             	3.25422643e+02
492             	3.25423011e+02
493             	3.25423388e+02
494             	3.25424071e+02
495             	3.25425058e+02
496             	3.25426130e+02
497             	3.25427218e+02
498             	3.25428325e+02
499             	3.25429497e+02
500             	3.25430744e+02
501             	3.25431993e+02
502             	3.25433422e+02
503             	3.25434934e+02
504             	3.25436541e+02
505             	3.25438090e+02
506             	3.25439526e+02
507             	3.25440842e+02
508             	3.25442149e+02
509             	3.25443601e+02
510             	3.25444871e+02
511             	3.25446104e+02
512             	3.25447573e+02
513             	3.25449347e+02
514             	3.25450798e+02
515             	3.25452139e+02
516             	3.25453551e+02
517             	3.25455391e+02
518             	3.25457313e+02
519             	3.25458864e+02
520             	3.25460192e+02
521             	3.25461737e+02
522             	3.25463552e+02
523             	3.25465761e+02
524             	3.25467987e+02
525             	3.25470177e+02
526             	3.25472271e+02
527             	3.25474341e+02
528             	3.25476226e+02
529             	3.25478099e+02
530             	3.25480045e+02
531             	3.25482108e+02
532             	3.25484219e+02
533             	3.25486296e+02
534             	3.25488217e+02
535             	3.25489947e+02
536             	3.25491458e+02
537             	3.25492784e+02
538             	3.25494020e+02
539             	3.25495048e+02
540             	3.25495779e+02
541             	3.25496292e+02
542             	3.25496646e+02
543             	3.25496901e+02
544             	3.25497054e+02
545             	3.25497144e+02
546             	3.25497340e+02
547             	3.25497658e+02
548             	3.25497953e+02
549             	3.25498215e+02
550             	3.25498531e+02
551             	3.25498965e+02
552             	3.25499533e+02
553             	3.25500101e+02
554             	3.25500542e+02
555             	3.25500865e+02
556             	3.25501073e+02
557             	3.25501299e+02
558             	3.25501524e+02
559             	3.25501833e+02
560             	3.25502393e+02
561             	3.25503197e+02
562             	3.25504166e+02
563             	3.25505273e+02
564             	3.25506479e+02
565             	3.25507921e+02
566             	3.25509406e+02
567             	3.25510641e+02
568             	3.25511946e+02
569             	3.25513327e+02
570             	3.25514708e+02
571             	3.25516093e+02
572             	3.25517496e+02
573             	3.25518953e+02
574             	3.25520412e+02
575             	3.25521890e+02
576             	3.25523209e+02
577             	3.25524342e+02
578             	3.25525330e+02
579             	3.25526344e+02
580             	3.25527361e+02
581             	3.25528325e+02
582             	3.25529200e+02
583             	3.25529992e+02
584             	3.25530583e+02
585             	3.25530969e+02
586             	3.25531348e+02
587             	3.25531733e+02
588             	3.25531990e+02
589             	3.25532339e+02
590             	3.25532905e+02
591             	3.25533735e+02
592             	3.25534761e+02
593             	3.25535916e+02
594             	3.25537119e+02
595             	3.25538213e+02
596             	3.25539228e+02
597             	3.25540349e+02
598             	3.25541376e+02
599             	3.25542239e+02
600             	3.25543195e+02
601             	3.25544298e+02
602             	3.25545386e+02
603             	3.25546490e+02
604             	3.25547669e+02
605             	3.25548882e+02
606             	3.25549770e+02
607             	3.25550717e+02
608             	3.25551610e+02
609             	3.25552418e+02
610             	3.25553100e+02
611             	3.25553682e+02
612             	3.25554163e+02
613             	3.25554708e+02
614             	3.25555092e+02
615             	3.25555205e+02
616             	3.25554899e+02
617             	3.25554688e+02
618             	3.25554520e+02
619             	3.25554381e+02
620             	3.25554299e+02
621             	3.25554356e+02
622             	3.25554587e+02
623             	3.25554911e+02
624             	3.25555176e+02
625             	3.25555459e+02
626             	3.25555693e+02
627             	3.25555898e+02
628             	3.25556140e+02
629             	3.25556444e+02
630             	3.25556795e+02
631             	3.25557192e+02
632             	3.25557527e+02
633             	3.25557772e+02
634             	3.25558077e+02
635             	3.25558366e+02
636             	3.25558517e+02
637             	3.25558533e+02
638             	3.25558451e+02
639             	3.25558383e+02
640             	3.25558427e+02
641             	3.25558688e+02
642             	3.25559037e+02
643             	3.25559415e+02
644             	3.25559885e+02
645             	3.25560452e+02
646             	3.25561122e+02
647             	3.25561925e+02
648             	3.25562604e+02
649             	3.25563228e+02
650             	3.25563980e+02
651             	3.25564882e+02
652             	3.25565989e+02
653             	3.25566891e+02
654             	3.25567689e+02
655             	3.25568509e+02
656             	3.25569205e+02
657             	3.25569782e+02
658             	3.25570254e+02
659             	3.25570577e+02
660             	3.25570844e+02
661             	3.25571187e+02
662             	3.25571518e+02
663             	3.25571792e+02
664             	3.25572026e+02
665             	3.25572249e+02
666             	3.25572351e+02
667             	3.25572360e+02
668             	3.25572310e+02
669             	3.25572259e+02
670             	3.25572221e+02
671             	3.25572245e+02
672             	3.25572437e+02
673             	3.25572827e+02
674             	3.25573326e+02
675             	3.25573985e+02
676             	3.25574696e+02
677             	3.25575394e+02
678             	3.25576042e+02
679             	3.25576633e+02
680             	3.25577114e+02
681             	3.25577480e+02
682             	3.25577753e+02
683             	3.25577962e+02
684             	3.25578237e+02
685             	3.25578496e+02
686             	3.25578802e+02
687             	3.25579181e+02
688             	3.25579652e+02
689             	3.25580328e+02
690             	3.25581091e+02
691             	3.25581900e+02
692             	3.25582684e+02
693             	3.25583475e+02
694             	3.25584045e+02
695             	3.25584335e+02
696             	3.25584288e+02
697             	3.25583859e+02
698             	3.25583162e+02
699             	3.25582265e+02
700             	3.25581070e+02
701             	3.25579753e+02
702             	3.25578548e+02
703             	3.25577504e+02
704             	3.25576706e+02
705             	3.25576236e+02
706             	3.25576112e+02
707             	3.25576259e+02
708             	3.25576680e+02
709             	3.25577362e+02
710             	3.25578126e+02
711             	3.25578894e+02
712             	3.25579586e+02
713             	3.25580156e+02
714             	3.25580508e+02
715             	3.25580767e+02
716             	3.25581003e+02
717             	3.25581310e+02
718             	3.25581781e+02
719             	3.25582446e+02
720             	3.25583204e+02
721             	3.25583924e+02
722             	3.25584563e+02
723             	3.25585111e+02
724             	3.25585559e+02
725             	3.25585912e+02
726             	3.25586248e+02
727             	3.25586727e+02
728             	3.25587214e+02
729             	3.25587575e+02
730             	3.25587706e+02
731             	3.25587969e+02
732             	3.25588324e+02
733             	3.25588540e+02
734             	3.25588458e+02
735             	3.25588239e+02
736             	3.25588143e+02
737             	3.25588063e+02
738             	3.25588049e+02
739             	3.25587914e+02
740             	3.25587684e+02
741             	3.25587444e+02
742             	3.25587440e+02
743             	3.25587492e+02
744             	3.25587466e+02
745             	3.25587368e+02
746             	3.25587246e+02
747             	3.25587073e+02
748             	3.25586892e+02
749             	3.25586795e+02
750             	3.25586825e+02
751             	3.25586980e+02
752             	3.25587345e+02
753             	3.25587719e+02
754             	3.25588150e+02
755             	3.25588692e+02
756             	3.25589353e+02
757             	3.25589954e+02
758             	3.25590533e+02
759             	3.25591128e+02
760             	3.25591808e+02
761             	3.25592432e+02
762             	3.25592826e+02
763             	3.25592890e+02
764             	3.25592658e+02
765             	3.25592161e+02
766             	3.25591451e+02
767             	3.25590555e+02
768             	3.25589618e+02
769             	3.25588791e+02
770             	3.25588239e+02
771             	3.25587834e+02
772             	3.25587561e+02
773             	3.25587319e+02
774             	3.25587133e+02
775             	3.25587039e+02
776             	3.25586988e+02
777             	3.25586963e+02
778             	3.25587002e+02
779             	3.25587072e+02
780             	3.25587052e+02
781             	3.25587064e+02
782             	3.25587125e+02
783             	3.25587199e+02
784             	3.25587371e+02
785             	3.25587705e+02
786             	3.25588283e+02
787             	3.25589069e+02
788             	3.25590047e+02
789             	3.25591202e+02
790             	3.25592476e+02
791             	3.25593640e+02
792             	3.25594707e+02
793             	3.25595599e+02
794             	3.25596282e+02
795             	3.25596699e+02
796             	3.25597086e+02
797             	3.25597345e+02
798             	3.25597556e+02
799             	3.25597671e+02
800             	3.25597860e+02
801             	3.25598093e+02
802             	3.25598598e+02
803             	3.25599281e+02
804             	3.25600052e+02
805             	3.25600804e+02
806             	3.25601482e+02
807             	3.25602024e+02
808             	3.25602420e+02
809             	3.25602670e+02
810             	3.25602766e+02
811             	3.25602709e+02
812             	3.25602567e+02
813             	3.25602390e+02
814             	3.25602211e+02
815             	3.25602010e+02
816             	3.25601859e+02
817             	3.25601759e+02
818             	3.25601747e+02
819             	3.25601838e+02
820             	3.25601950e+02
821             	3.25602047e+02
822             	3.25602156e+02
823             	3.25602235e+02
824             	3.25602245e+02
825             	3.25602132e+02
826             	3.25601881e+02
827             	3.25601488e+02
828             	3.25601025e+02
829             	3.25600505e+02
830             	3.25599999e+02
831             	3.25599543e+02
832             	3.25599241e+02
833             	3.25598966e+02
834             	3.25598594e+02
835             	3.25598115e+02
836             	3.25597507e+02
837             	3.25596702e+02
838             	3.25595677e+02
839             	3.25594457e+02
840             	3.25593123e+02
841             	3.25591777e+02
842             	3.25590491e+02
843             	3.25589350e+02
844             	3.25588449e+02
845             	3.25587841e+02
846             	3.25587681e+02
847             	3.25587767e+02
848             	3.25588011e+02
849             	3.25588297e+02
850             	3.25588516e+02
851             	3.25588860e+02
852             	3.25589518e+02
853             	3.25590384e+02
854             	3.25590924e+02
855             	3.25591529e+02
856             	3.25592380e+02
857             	3.25593198e+02
858             	3.25594044e+02
859             	3.25594553e+02
860             	3.25595011e+02
861             	3.25595322e+02
862             	3.25595466e+02
863             	3.25595580e+02
864             	3.25595858e+02
865             	3.25596136e+02
866             	3.25596268e+02
867             	3.25596169e+02
868             	3.25595861e+02
869             	3.25595337e+02
870             	3.25594672e+02
871             	3.25593963e+02
872             	3.25593267e+02
873             	3.25592603e+02
874             	3.25591951e+02
875             	3.25591212e+02
876             	3.25590752e+02
877             	3.25590725e+02
878             	3.25591128e+02
879             	3.25591897e+02
880             	3.25592898e+02
881             	3.25594113e+02
882             	3.25595443e+02
883             	3.25596929e+02
884             	3.25598365e+02
885             	3.25599408e+02
886             	3.25600291e+02
887             	3.25600961e+02
888             	3.25601348e+02
889             	3.25601329e+02
890             	3.25601075e+02
891             	3.25600591e+02
892             	3.25600282e+02
893             	3.25599899e+02
894             	3.25599423e+02
895             	3.25599232e+02
896             	3.25599206e+02
897             	3.25599146e+02
898             	3.25599185e+02
899             	3.25599311e+02
900             	3.25599643e+02
901             	3.25600130e+02
902             	3.25600539e+02
903             	3.25600954e+02
904             	3.25601484e+02
905             	3.25602038e+02
906             	3.25602670e+02
907             	3.25603279e+02
908             	3.25603849e+02
909             	3.25604305e+02
910             	3.25604619e+02
911             	3.25604814e+02
912             	3.25604966e+02
913             	3.25605076e+02
914             	3.25605145e+02
915             	3.25605079e+02
916             	3.25605024e+02
917             	3.25604996e+02
918             	3.25605118e+02
919             	3.25605537e+02
920             	3.25606197e+02
921             	3.25606952e+02
922             	3.25607679e+02
923             	3.25608269e+02
924             	3.25608659e+02
925             	3.25608806e+02
926             	3.25608693e+02
927             	3.25608384e+02
928             	3.25607934e+02
929             	3.25607376e+02
930             	3.25606815e+02
931             	3.25606333e+02
932             	3.25606131e+02
933             	3.25606081e+02