# Region        : cellZone component_4
# Cells         : 125
# Volume        : 2.17803006e-01
# Time          	volAverage(T)
1               	3.00305992e+02
2               	3.00608869e+02
3               	3.00894286e+02
4               	3.01169449e+02
5               	3.01439398e+02
6               	3.01705961e+02
7               	3.01969597e+02
8               	3.02231140e+02
9               	3.02491308e+02
10              	3.02750118e+02
11              	3.03008870e+02
12              	3.03264797e+02
13              	3.03518582e+02
14              	3.03771215e+02
15              	3.04023245e+02
16              	3.04269247e+02
17              	3.04509128e+02
18              	3.04742597e+02
19              	3.04968004e+02
20              	3.05194324e+02
21              	3.05422609e+02
22              	3.05648369e+02
23              	3.05870726e+02
24              	3.06090154e+02
25              	3.06306273e+02
26              	3.06521033e+02
27              	3.06735861e+02
28              	3.06950760e+02
29              	3.07154438e+02
30              	3.07347358e+02
31              	3.07532612e+02
32              	3.07700887e+02
33              	3.07875423e+02
34              	3.08052016e+02
35              	3.08226953e+02
36              	3.08400250e+02
37              	3.08572523e+02
38              	3.08744315e+02
39              	3.08913581e+02
40              	3.09079000e+02
41              	3.09241419e+02
42              	3.09403763e+02
43              	3.09564848e+02
44              	3.09716313e+02
45              	3.09862175e+02
46              	3.09995233e+02
47              	3.10127240e+02
48              	3.10264223e+02
49              	3.10405375e+02
50              	3.10550374e+02
51              	3.10697285e+02
52              	3.10845214e+02
53              	3.10995380e+02
54              	3.11142567e+02
55              	3.11284628e+02
56              	3.11425001e+02
57              	3.11557763e+02
58              	3.11690418e+02
59              	3.11825326e+02
60              	3.11962733e+02
61              	3.12102430e+02
62              	3.12237396e+02
63              	3.12361143e+02
64              	3.12477433e+02
65              	3.12586642e+02
66              	3.12699956e+02
67              	3.12809083e+02
68              	3.12913241e+02
69              	3.13016287e+02
70              	3.13116360e+02
71              	3.13214682e+02
72              	3.13310383e+02
73              	3.13408664e+02
74              	3.13505860e+02
75              	3.13608648e+02
76              	3.13715341e+02
77              	3.13816354e+02
78              	3.13909463e+02
79              	3.14002505e+02
80              	3.14088797e+02
81              	3.14173978e+02
82              	3.14257365e+02
83              	3.14340967e+02
84              	3.14416179e+02
85              	3.14489226e+02
86              	3.14558801e+02
87              	3.14631282e+02
88              	3.14707563e+02
89              	3.14793461e+02
90              	3.14885275e+02
91              	3.14962039e+02
92              	3.15034167e+02
93              	3.15101929e+02
94              	3.15166555e+02
95              	3.15232095e+02
96              	3.15298205e+02
97              	3.15361919e+02
98              	3.15420301e+02
99              	3.15471973e+02
100             	3.15519790e+02
101             	3.15568366e+02
102             	3.15621183e+02
103             	3.15679078e+02
104             	3.15742148e+02
105             	3.15808503e+02
106             	3.15877779e+02
107             	3.15948549e+02
108             	3.16018666e+02
109             	3.16087195e+02
110             	3.16153479e+02
111             	3.16216669e+02
112             	3.16275441e+02
113             	3.16329818e+02
114             	3.16381390e+02
115             	3.16430282e+02
116             	3.16477386e+02
117             	3.16523143e+02
118             	3.16567907e+02
119             	3.16611923e+02
120             	3.16655372e+02
121             	3.16698430e+02
122             	3.16741269e+02
123             	3.16786382e+02
124             	3.16833586e+02
125             	3.16882785e+02
126             	3.16933398e+02
127             	3.16985062e+02
128             	3.17034685e+02
129             	3.17085382e+02
130             	3.17135472e+02
131             	3.17183241e+02
132             	3.17228548e+02
133             	3.17271118e+02
134             	3.17311193e+02
135             	3.17349542e+02
136             	3.17386728e+02
137             	3.17423253e+02
138             	3.17460001e+02
139             	3.17498102e+02
140             	3.17536640e+02
141             	3.17576073e+02
142             	3.17616556e+02
143             	3.17657277e+02
144             	3.17698156e+02
145             	3.17739497e+02
146             	3.17780751e+02
147             	3.17819822e+02
148             	3.17857487e+02
149             	3.17894159e+02
150             	3.17929287e+02
151             	3.17962849e+02
152             	3.17995161e+02
153             	3.18026350e+02
154             	3.18057079e+02
155             	3.18087485e+02
156             	3.18118390e+02
157             	3.18150242e+02
158             	3.18182621e+02
159             	3.18215812e+02
160             	3.18249375e+02
161             	3.18282158e+02
162             	3.18315121e+02
163             	3.18347176e+02
164             	3.18378538e+02
165             	3.18408978e+02
166             	3.18438424e+02
167             	3.18466995e+02
168             	3.18494206e+02
169             	3.18520844e+02
170             	3.18546638e+02
171             	3.18571557e+02
172             	3.18595942e+02
173             	3.18619952e+02
174             	3.18643649e+02
175             	3.18666924e+02
176             	3.18689645e+02
177             	3.18711681e+02
178             	3.18733156e+02
179             	3.18753967e+02
180             	3.18774415e+02
181             	3.18794927e+02
182             	3.18815631e+02
183             	3.18836338e+02
184             	3.18857473e+02
185             	3.18879055e+02
186             	3.18900408e+02
187             	3.18921651e+02
188             	3.18942150e+02
189             	3.18962698e+02
190             	3.18982907e+02
191             	3.19002482e+02
192             	3.19021444e+02
193             	3.19039992e+02
194             	3.19058134e+02
195             	3.19075903e+02
196             	3.19093283e+02
197             	3.19110616e+02
198             	3.19128108e+02
199             	3.19145595e+02
200             	3.19163392e+02
201             	3.19181652e+02
202             	3.19200016e+02
203             	3.19218090e+02
204             	3.19235932e+02
205             	3.19252993e+02
206             	3.19270001e+02
207             	3.19286486e+02
208             	3.19302272e+02
209             	3.19317155e+02
210             	3.19331579e+02
211             	3.19345576e+02
212             	3.19359326e+02
213             	3.19372848e+02
214             	3.19386132e+02
215             	3.19399535e+02
216             	3.19413173e+02
217             	3.19427189e+02
218             	3.19441218e+02
219             	3.19455340e+02
220             	3.19469576e+02
221             	3.19483656e+02
222             	3.19497409e+02
223             	3.19510675e+02
224             	3.19523799e+02
225             	3.19536497e+02
226             	3.19548468e+02
227             	3.19560029e+02
228             	3.19571348e+02
229             	3.19582291e+02
230             	3.19593030e+02
231             	3.19603822e+02
232             	3.19615011e+02
233             	3.19626177e+02
234             	3.19637460e+02
235             	3.19648922e+02
236             	3.19660417e+02
237             	3.19671685e+02
238             	3.19682792e+02
239             	3.19693557e+02
240             	3.19704157e+02
241             	3.19714360e+02
242             	3.19724066e+02
243             	3.19733599e+02
244             	3.19742716e+02
245             	3.19751569e+02
246             	3.19760387e+02
247             	3.19769048e+02
248             	3.19777633e+02
249             	3.19786102e+02
250             	3.19794483e+02
251             	3.19802851e+02
252             	3.19811175e+02
253             	3.19819454e+02
254             	3.19827697e+02
255             	3.19835809e+02
256             	3.19843908e+02
257             	3.19852014e+02
258             	3.19860085e+02
259             	3.19868098e+02
260             	3.19875985e+02
261             	3.19883871e+02
262             	3.19891722e+02
263             	3.19899457e+02
264             	3.19907120e+02
265             	3.19914720e+02
266             	3.19922274e+02
267             	3.19929735e+02
268             	3.19937198e+02
269             	3.19944431e+02
270             	3.19951710e+02
271             	3.19958881e+02
272             	3.19965911e+02
273             	3.19972792e+02
274             	3.19979533e+02
275             	3.19986190e+02
276             	3.19992749e+02
277             	3.19999225e+02
278             	3.20005648e+02
279             	3.20012054e+02
280             	3.20018450e+02
281             	3.20024813e+02
282             	3.20031105e+02
283             	3.20037322e+02
284             	3.20043405e+02
285             	3.20049340e+02
286             	3.20055116e+02
287             	3.20060837e+02
288             	3.20066488e+02
289             	3.20072091e+02
290             	3.20077641e+02
291             	3.20083206e+02
292             	3.20088800e+02
293             	3.20094391e+02
294             	3.20099853e+02
295             	3.20105313e+02
296             	3.20110565e+02
297             	3.20115761e+02
298             	3.20120842e+02
299             	3.20125790e+02
300             	3.20130664e+02
301             	3.20135456e+02
302             	3.20140205e+02
303             	3.20144969e+02
304             	3.20149724e+02
305             	3.20154485e+02
306             	3.20159224e+02
307             	3.20163954e+02
308             	3.20168721e+02
309             	3.20173426e+02
310             	3.20178072e+02
311             	3.20182676e+02
312             	3.20187240e+02
313             	3.20191715e+02
314             	3.20196110e+02
315             	3.20200419e+02
316             	3.20204666e+02
317             	3.20208838e+02
318             	3.20212930e+02
319             	3.20216951e+02
320             	3.20220821e+02
321             	3.20224654e+02
322             	3.20228412e+02
323             	3.20232098e+02
324             	3.20235707e+02
325             	3.20239266e+02
326             	3.20242793e+02
327             	3.20246297e+02
328             	3.20249780e+02
329             	3.20253239e+02
330             	3.20256670e+02
331             	3.20260117e+02
332             	3.20263529e+02
333             	3.20266909e+02
334             	3.20270265e+02
335             	3.20273590e+02
336             	3.20276885e+02
337             	3.20280155e+02
338             	3.20283391e+02
339             	3.20286576e+02
340             	3.20289700e+02
341             	3.20292771e+02
342             	3.20295785e+02
343             	3.20298724e+02
344             	3.20301605e+02
345             	3.20304439e+02
346             	3.20307224e+02
347             	3.20309960e+02
348             	3.20312683e+02
349             	3.20315360e+02
350             	3.20318005e+02
351             	3.20320607e+02
352             	3.20323174e+02
353             	3.20325705e+02
354             	3.20328202e+02
355             	3.20330680e+02
356             	3.20333128e+02
357             	3.20335556e+02
358             	3.20337960e+02
359             	3.20340339e+02
360             	3.20342710e+02
361             	3.20345051e+02
362             	3.20347363e+02
363             	3.20349645e+02
364             	3.20351896e+02
365             	3.20354117e+02
366             	3.20356304e+02
367             	3.20358458e+02
368             	3.20360569e+02
369             	3.20362641e+02
370             	3.20364683e+02
371             	3.20366692e+02
372             	3.20368663e+02
373             	3.20370595e+02
374             	3.20372492e+02
375             	3.20374363e+02
376             	3.20376204e+02
377             	3.20378031e+02
378             	3.20379838e+02
379             	3.20381628e+02
380             	3.20383416e+02
381             	3.20385190e+02
382             	3.20386952e+02
383             	3.20388701e+02
384             	3.20390423e+02
385             	3.20392127e+02
386             	3.20393812e+02
387             	3.20395471e+02
388             	3.20397107e+02
389             	3.20398707e+02
390             	3.20400289e+02
391             	3.20401831e+02
392             	3.20403350e+02
393             	3.20404842e+02
394             	3.20406307e+02
395             	3.20407745e+02
396             	3.20409164e+02
397             	3.20410582e+02
398             	3.20411977e+02
399             	3.20413361e+02
400             	3.20414738e+02
401             	3.20416106e+02
402             	3.20417465e+02
403             	3.20418809e+02
404             	3.20420136e+02
405             	3.20421443e+02
406             	3.20422730e+02
407             	3.20423994e+02
408             	3.20425243e+02
409             	3.20426466e+02
410             	3.20427674e+02
411             	3.20428864e+02
412             	3.20430036e+02
413             	3.20431191e+02
414             	3.20432330e+02
415             	3.20433455e+02
416             	3.20434569e+02
417             	3.20435673e+02
418             	3.20436769e+02
419             	3.20437851e+02
420             	3.20438925e+02
421             	3.20439987e+02
422             	3.20441036e+02
423             	3.20442072e+02
424             	3.20443096e+02
425             	3.20444108e+02
426             	3.20445103e+02
427             	3.20446086e+02
428             	3.20447056e+02
429             	3.20448016e+02
430             	3.20448961e+02
431             	3.20449892e+02
432             	3.20450809e+02
433             	3.20451713e+02
434             	3.20452603e+02
435             	3.20453480e+02
436             	3.20454345e+02
437             	3.20455197e+02
438             	3.20456037e+02
439             	3.20456863e+02
440             	3.20457677e+02
441             	3.20458482e+02
442             	3.20459275e+02
443             	3.20460059e+02
444             	3.20460834e+02
445             	3.20461601e+02
446             	3.20462359e+02
447             	3.20463107e+02
448             	3.20463845e+02
449             	3.20464572e+02
450             	3.20465291e+02
451             	3.20465999e+02
452             	3.20466703e+02
453             	3.20467396e+02
454             	3.20468081e+02
455             	3.20468760e+02
456             	3.20469433e+02
457             	3.20470097e+02
458             	3.20470753e+02
459             	3.20471399e+02
460             	3.20472034e+02
461             	3.20472658e+02
462             	3.20473273e+02
463             	3.20473880e+02
464             	3.20474474e+02
465             	3.20475063e+02
466             	3.20475645e+02
467             	3.20476219e+02
468             	3.20476784e+02
469             	3.20477340e+02
470             	3.20477893e+02
471             	3.20478437e+02
472             	3.20478978e+02
473             	3.20479516e+02
474             	3.20480049e+02
475             	3.20480577e+02
476             	3.20481100e+02
477             	3.20481618e+02
478             	3.20482127e+02
479             	3.20482630e+02
480             	3.20483126e+02
481             	3.20483614e+02
482             	3.20484094e+02
483             	3.20484567e+02
484             	3.20485034e+02
485             	3.20485495e+02
486             	3.20485949e+02
487             	3.20486397e+02
488             	3.20486839e+02
489             	3.20487275e+02
490             	3.20487705e+02
491             	3.20488130e+02
492             	3.20488548e+02
493             	3.20488962e+02
494             	3.20489370e+02
495             	3.20489773e+02
496             	3.20490171e+02
497             	3.20490564e+02
498             	3.20490953e+02
499             	3.20491337e+02
500             	3.20491716e+02
501             	3.20492090e+02
502             	3.20492461e+02
503             	3.20492827e+02
504             	3.20493188e+02
505             	3.20493545e+02
506             	3.20493899e+02
507             	3.20494249e+02
508             	3.20494596e+02
509             	3.20494938e+02
510             	3.20495276e+02
511             	3.20495609e+02
512             	3.20495939e+02
513             	3.20496265e+02
514             	3.20496587e+02
515             	3.20496903e+02
516             	3.20497216e+02
517             	3.20497524e+02
518             	3.20497829e+02
519             	3.20498128e+02
520             	3.20498424e+02
521             	3.20498717e+02
522             	3.20499006e+02
523             	3.20499291e+02
524             	3.20499575e+02
525             	3.20499854e+02
526             	3.20500131e+02
527             	3.20500406e+02
528             	3.20500676e+02
529             	3.20500944e+02
530             	3.20501209e+02
531             	3.20501471e+02
532             	3.20501730e+02
533             	3.20501985e+02
534             	3.20502237e+02
535             	3.20502487e+02
536             	3.20502734e+02
537             	3.20502977e+02
538             	3.20503218e+02
539             	3.20503455e+02
540             	3.20503689e+02
541             	3.20503921e+02
542             	3.20504149e+02
543             	3.20504374e+02
544             	3.20504597e+02
545             	3.20504817e+02
546             	3.20505036e+02
547             	3.20505253e+02
548             	3.20505467e+02
549             	3.20505680e+02
550             	3.20505890e+02
551             	3.20506099e+02
552             	3.20506305e+02
553             	3.20506509e+02
554             	3.20506710e+02
555             	3.20506908e+02
556             	3.20507104e+02
557             	3.20507297e+02
558             	3.20507488e+02
559             	3.20507677e+02
560             	3.20507864e+02
561             	3.20508049e+02
562             	3.20508232e+02
563             	3.20508412e+02
564             	3.20508592e+02
565             	3.20508769e+02
566             	3.20508944e+02
567             	3.20509117e+02
568             	3.20509289e+02
569             	3.20509458e+02
570             	3.20509626e+02
571             	3.20509792e+02
572             	3.20509956e+02
573             	3.20510119e+02
574             	3.20510280e+02
575             	3.20510439e+02
576             	3.20510596e+02
577             	3.20510752e+02
578             	3.20510906e+02
579             	3.20511058e+02
580             	3.20511208e+02
581             	3.20511356e+02
582             	3.20511503e+02
583             	3.20511648e+02
584             	3.20511791e+02
585             	3.20511933e+02
586             	3.20512073e+02
587             	3.20512213e+02
588             	3.20512350e+02
589             	3.20512487e+02
590             	3.20512623e+02
591             	3.20512757e+02
592             	3.20512891e+02
593             	3.20513022e+02
594             	3.20513153e+02
595             	3.20513283e+02
596             	3.20513411e+02
597             	3.20513538e+02
598             	3.20513663e+02
599             	3.20513787e+02
600             	3.20513909e+02
601             	3.20514029e+02
602             	3.20514149e+02
603             	3.20514266e+02
604             	3.20514383e+02
605             	3.20514498e+02
606             	3.20514612e+02
607             	3.20514725e+02
608             	3.20514837e+02
609             	3.20514948e+02
610             	3.20515058e+02
611             	3.20515167e+02
612             	3.20515276e+02
613             	3.20515383e+02
614             	3.20515490e+02
615             	3.20515596e+02
616             	3.20515700e+02
617             	3.20515803e+02
618             	3.20515905e+02
619             	3.20516005e+02
620             	3.20516104e+02
621             	3.20516203e+02
622             	3.20516300e+02
623             	3.20516397e+02
624             	3.20516492e+02
625             	3.20516587e+02
626             	3.20516681e+02
627             	3.20516773e+02
628             	3.20516865e+02
629             	3.20516956e+02
630             	3.20517047e+02
631             	3.20517136e+02
632             	3.20517225e+02
633             	3.20517313e+02
634             	3.20517401e+02
635             	3.20517487e+02
636             	3.20517574e+02
637             	3.20517659e+02
638             	3.20517743e+02
639             	3.20517827e+02
640             	3.20517911e+02
641             	3.20517992e+02
642             	3.20518073e+02
643             	3.20518152e+02
644             	3.20518230e+02
645             	3.20518307e+02
646             	3.20518383e+02
647             	3.20518459e+02
648             	3.20518533e+02
649             	3.20518607e+02
650             	3.20518681e+02
651             	3.20518754e+02
652             	3.20518827e+02
653             	3.20518900e+02
654             	3.20518972e+02
655             	3.20519044e+02
656             	3.20519116e+02
657             	3.20519187e+02
658             	3.20519258e+02
659             	3.20519327e+02
660             	3.20519396e+02
661             	3.20519464e+02
662             	3.20519532e+02
663             	3.20519598e+02
664             	3.20519664e+02
665             	3.20519728e+02
666             	3.20519792e+02
667             	3.20519855e+02
668             	3.20519917e+02
669             	3.20519978e+02
670             	3.20520039e+02
671             	3.20520100e+02
672             	3.20520161e+02
673             	3.20520221e+02
674             	3.20520282e+02
675             	3.20520342e+02
676             	3.20520403e+02
677             	3.20520463e+02
678             	3.20520523e+02
679             	3.20520582e+02
680             	3.20520640e+02
681             	3.20520697e+02
682             	3.20520753e+02
683             	3.20520808e+02
684             	3.20520862e+02
685             	3.20520915e+02
686             	3.20520968e+02
687             	3.20521020e+02
688             	3.20521073e+02
689             	3.20521125e+02
690             	3.20521177e+02
691             	3.20521229e+02
692             	3.20521281e+02
693             	3.20521333e+02
694             	3.20521385e+02
695             	3.20521436e+02
696             	3.20521487e+02
697             	3.20521537e+02
698             	3.20521587e+02
699             	3.20521635e+02
700             	3.20521683e+02
701             	3.20521731e+02
702             	3.20521777e+02
703             	3.20521822e+02
704             	3.20521867e+02
705             	3.20521912e+02
706             	3.20521957e+02
707             	3.20522001e+02
708             	3.20522045e+02
709             	3.20522090e+02
710             	3.20522135e+02
711             	3.20522180e+02
712             	3.20522226e+02
713             	3.20522270e+02
714             	3.20522316e+02
715             	3.20522359e+02
716             	3.20522403e+02
717             	3.20522445e+02
718             	3.20522486e+02
719             	3.20522525e+02
720             	3.20522563e+02
721             	3.20522601e+02
722             	3.20522639e+02
723             	3.20522677e+02
724             	3.20522715e+02
725             	3.20522754e+02
726             	3.20522793e+02
727             	3.20522834e+02
728             	3.20522875e+02
729             	3.20522915e+02
730             	3.20522955e+02
731             	3.20522993e+02
732             	3.20523031e+02
733             	3.20523068e+02
734             	3.20523103e+02
735             	3.20523137e+02
736             	3.20523171e+02
737             	3.20523204e+02
738             	3.20523237e+02
739             	3.20523270e+02
740             	3.20523304e+02
741             	3.20523339e+02
742             	3.20523373e+02
743             	3.20523409e+02
744             	3.20523444e+02
745             	3.20523479e+02
746             	3.20523514e+02
747             	3.20523549e+02
748             	3.20523582e+02
749             	3.20523615e+02
750             	3.20523647e+02
751             	3.20523679e+02
752             	3.20523710e+02
753             	3.20523741e+02
754             	3.20523772e+02
755             	3.20523803e+02
756             	3.20523834e+02
757             	3.20523865e+02
758             	3.20523895e+02
759             	3.20523925e+02
760             	3.20523955e+02
761             	3.20523985e+02
762             	3.20524014e+02
763             	3.20524043e+02
764             	3.20524072e+02
765             	3.20524101e+02
766             	3.20524131e+02
767             	3.20524159e+02
768             	3.20524187e+02
769             	3.20524215e+02
770             	3.20524242e+02
771             	3.20524270e+02
772             	3.20524298e+02
773             	3.20524325e+02
774             	3.20524353e+02
775             	3.20524382e+02
776             	3.20524410e+02
777             	3.20524439e+02
778             	3.20524468e+02
779             	3.20524496e+02
780             	3.20524524e+02
781             	3.20524551e+02
782             	3.20524578e+02
783             	3.20524605e+02
784             	3.20524630e+02
785             	3.20524655e+02
786             	3.20524679e+02
787             	3.20524704e+02
788             	3.20524728e+02
789             	3.20524752e+02
790             	3.20524777e+02
791             	3.20524801e+02
792             	3.20524825e+02
793             	3.20524850e+02
794             	3.20524874e+02
795             	3.20524899e+02
796             	3.20524923e+02
797             	3.20524947e+02
798             	3.20524971e+02
799             	3.20524994e+02
800             	3.20525017e+02
801             	3.20525040e+02
802             	3.20525063e+02
803             	3.20525086e+02
804             	3.20525108e+02
805             	3.20525130e+02
806             	3.20525152e+02
807             	3.20525174e+02
808             	3.20525196e+02
809             	3.20525217e+02
810             	3.20525238e+02
811             	3.20525260e+02
812             	3.20525280e+02
813             	3.20525301e+02
814             	3.20525321e+02
815             	3.20525340e+02
816             	3.20525360e+02
817             	3.20525379e+02
818             	3.20525399e+02
819             	3.20525418e+02
820             	3.20525438e+02
821             	3.20525457e+02
822             	3.20525477e+02
823             	3.20525496e+02
824             	3.20525515e+02
825             	3.20525534e+02
826             	3.20525553e+02
827             	3.20525572e+02
828             	3.20525590e+02
829             	3.20525608e+02
830             	3.20525626e+02
831             	3.20525644e+02
832             	3.20525661e+02
833             	3.20525678e+02
834             	3.20525696e+02
835             	3.20525713e+02
836             	3.20525730e+02
837             	3.20525747e+02
838             	3.20525763e+02
839             	3.20525780e+02
840             	3.20525796e+02
841             	3.20525812e+02
842             	3.20525828e+02
843             	3.20525844e+02
844             	3.20525860e+02
845             	3.20525876e+02
846             	3.20525891e+02
847             	3.20525906e+02
848             	3.20525922e+02
849             	3.20525937e+02
850             	3.20525953e+02
851             	3.20525968e+02
852             	3.20525983e+02
853             	3.20525999e+02
854             	3.20526014e+02
855             	3.20526029e+02
856             	3.20526045e+02
857             	3.20526060e+02
858             	3.20526075e+02
859             	3.20526090e+02
860             	3.20526105e+02
861             	3.20526120e+02
862             	3.20526135e+02
863             	3.20526149e+02
864             	3.20526163e+02
865             	3.20526178e+02
866             	3.20526192e+02
867             	3.20526205e+02
868             	3.20526219e+02
869             	3.20526233e+02
870             	3.20526246e+02
871             	3.20526260e+02
872             	3.20526273e+02
873             	3.20526286e+02
874             	3.20526299e+02
875             	3.20526312e+02
876             	3.20526324e+02
877             	3.20526336e+02
878             	3.20526348e+02
879             	3.20526359e+02
880             	3.20526371e+02
881             	3.20526382e+02
882             	3.20526393e+02
883             	3.20526404e+02
884             	3.20526414e+02
885             	3.20526425e+02
886             	3.20526436e+02
887             	3.20526447e+02
888             	3.20526458e+02
889             	3.20526469e+02
890             	3.20526481e+02
891             	3.20526492e+02
892             	3.20526503e+02
893             	3.20526515e+02
894             	3.20526526e+02
895             	3.20526538e+02
896             	3.20526550e+02
897             	3.20526562e+02
898             	3.20526574e+02
899             	3.20526586e+02
900             	3.20526599e+02
901             	3.20526611e+02
902             	3.20526624e+02
903             	3.20526636e+02
904             	3.20526648e+02
905             	3.20526660e+02
906             	3.20526673e+02
907             	3.20526685e+02
908             	3.20526696e+02
909             	3.20526708e+02
910             	3.20526719e+02
911             	3.20526731e+02
912             	3.20526742e+02
913             	3.20526752e+02
914             	3.20526763e+02
915             	3.20526774e+02
916             	3.20526784e+02
917             	3.20526794e+02
918             	3.20526804e+02
919             	3.20526814e+02
920             	3.20526823e+02
921             	3.20526833e+02
922             	3.20526842e+02
923             	3.20526852e+02
924             	3.20526861e+02
925             	3.20526870e+02
926             	3.20526880e+02
927             	3.20526889e+02
928             	3.20526898e+02
929             	3.20526907e+02
930             	3.20526916e+02
931             	3.20526926e+02
932             	3.20526935e+02
933             	3.20526944e+02