# Region        : cellZone pcb
# Cells         : 604
# Volume        : 4.99887580e-01
# Time          	volAverage(T)
1               	3.00035772e+02
2               	3.00103490e+02
3               	3.00196350e+02
4               	3.00311417e+02
5               	3.00445755e+02
6               	3.00597675e+02
7               	3.00765583e+02
8               	3.00948109e+02
9               	3.01143949e+02
10              	3.01352610e+02
11              	3.01572555e+02
12              	3.01802738e+02
13              	3.02042277e+02
14              	3.02290377e+02
15              	3.02545386e+02
16              	3.02806626e+02
17              	3.03077650e+02
18              	3.03351748e+02
19              	3.03632636e+02
20              	3.03917569e+02
21              	3.04207509e+02
22              	3.04501886e+02
23              	3.04800505e+02
24              	3.05102018e+02
25              	3.05407699e+02
26              	3.05715137e+02
27              	3.06025030e+02
28              	3.06337078e+02
29              	3.06650456e+02
30              	3.06964465e+02
31              	3.07278487e+02
32              	3.07593268e+02
33              	3.07908213e+02
34              	3.08225947e+02
35              	3.08541555e+02
36              	3.08857365e+02
37              	3.09173797e+02
38              	3.09489286e+02
39              	3.09803911e+02
40              	3.10118374e+02
41              	3.10431411e+02
42              	3.10743236e+02
43              	3.11053941e+02
44              	3.11366237e+02
45              	3.11678594e+02
46              	3.11988900e+02
47              	3.12296401e+02
48              	3.12601918e+02
49              	3.12905483e+02
50              	3.13206679e+02
51              	3.13505096e+02
52              	3.13801069e+02
53              	3.14098121e+02
54              	3.14393962e+02
55              	3.14685634e+02
56              	3.14976559e+02
57              	3.15266748e+02
58              	3.15555882e+02
59              	3.15843584e+02
60              	3.16132005e+02
61              	3.16422166e+02
62              	3.16707425e+02
63              	3.16992761e+02
64              	3.17277484e+02
65              	3.17558977e+02
66              	3.17840203e+02
67              	3.18117634e+02
68              	3.18391548e+02
69              	3.18662211e+02
70              	3.18929931e+02
71              	3.19194174e+02
72              	3.19456820e+02
73              	3.19719535e+02
74              	3.19980979e+02
75              	3.20238498e+02
76              	3.20492789e+02
77              	3.20746959e+02
78              	3.21001406e+02
79              	3.21256206e+02
80              	3.21508127e+02
81              	3.21758031e+02
82              	3.22005067e+02
83              	3.22250008e+02
84              	3.22492998e+02
85              	3.22730889e+02
86              	3.22966087e+02
87              	3.23200320e+02
88              	3.23431150e+02
89              	3.23658635e+02
90              	3.23885983e+02
91              	3.24111801e+02
92              	3.24335185e+02
93              	3.24552398e+02
94              	3.24768434e+02
95              	3.24984081e+02
96              	3.25198290e+02
97              	3.25412032e+02
98              	3.25624554e+02
99              	3.25833401e+02
100             	3.26041929e+02
101             	3.26248989e+02
102             	3.26451524e+02
103             	3.26656370e+02
104             	3.26856646e+02
105             	3.27056100e+02
106             	3.27248891e+02
107             	3.27437813e+02
108             	3.27624366e+02
109             	3.27813021e+02
110             	3.27999853e+02
111             	3.28184616e+02
112             	3.28368990e+02
113             	3.28555010e+02
114             	3.28740440e+02
115             	3.28924825e+02
116             	3.29107993e+02
117             	3.29286159e+02
118             	3.29460190e+02
119             	3.29631175e+02
120             	3.29799050e+02
121             	3.29963348e+02
122             	3.30125860e+02
123             	3.30288961e+02
124             	3.30448204e+02
125             	3.30603970e+02
126             	3.30758835e+02
127             	3.30911206e+02
128             	3.31061114e+02
129             	3.31211595e+02
130             	3.31360343e+02
131             	3.31507454e+02
132             	3.31653385e+02
133             	3.31796637e+02
134             	3.31938329e+02
135             	3.32079288e+02
136             	3.32221166e+02
137             	3.32363218e+02
138             	3.32502060e+02
139             	3.32639548e+02
140             	3.32776221e+02
141             	3.32911410e+02
142             	3.33045786e+02
143             	3.33180395e+02
144             	3.33312755e+02
145             	3.33444451e+02
146             	3.33575369e+02
147             	3.33704630e+02
148             	3.33831581e+02
149             	3.33957481e+02
150             	3.34081885e+02
151             	3.34204468e+02
152             	3.34325108e+02
153             	3.34443989e+02
154             	3.34561158e+02
155             	3.34677487e+02
156             	3.34791890e+02
157             	3.34905300e+02
158             	3.35017089e+02
159             	3.35127946e+02
160             	3.35237872e+02
161             	3.35347291e+02
162             	3.35456065e+02
163             	3.35563150e+02
164             	3.35668781e+02
165             	3.35773715e+02
166             	3.35878035e+02
167             	3.35980253e+02
168             	3.36082751e+02
169             	3.36184286e+02
170             	3.36284946e+02
171             	3.36384782e+02
172             	3.36483728e+02
173             	3.36581481e+02
174             	3.36678487e+02
175             	3.36774159e+02
176             	3.36868517e+02
177             	3.36961622e+02
178             	3.37053597e+02
179             	3.37144150e+02
180             	3.37233394e+02
181             	3.37321465e+02
182             	3.37407814e+02
183             	3.37493362e+02
184             	3.37578026e+02
185             	3.37661924e+02
186             	3.37743577e+02
187             	3.37825285e+02
188             	3.37906560e+02
189             	3.37987222e+02
190             	3.38067162e+02
191             	3.38146506e+02
192             	3.38223576e+02
193             	3.38300977e+02
194             	3.38378147e+02
195             	3.38454718e+02
196             	3.38530706e+02
197             	3.38606110e+02
198             	3.38680786e+02
199             	3.38754779e+02
200             	3.38828584e+02
201             	3.38899481e+02
202             	3.38970489e+02
203             	3.39040885e+02
204             	3.39110680e+02
205             	3.39179875e+02
206             	3.39248121e+02
207             	3.39315508e+02
208             	3.39381960e+02
209             	3.39446060e+02
210             	3.39510109e+02
211             	3.39573710e+02
212             	3.39636847e+02
213             	3.39699576e+02
214             	3.39761794e+02
215             	3.39823473e+02
216             	3.39882659e+02
217             	3.39941989e+02
218             	3.40001214e+02
219             	3.40060367e+02
220             	3.40118856e+02
221             	3.40176760e+02
222             	3.40234255e+02
223             	3.40291343e+02
224             	3.40348148e+02
225             	3.40402707e+02
226             	3.40457462e+02
227             	3.40512165e+02
228             	3.40564855e+02
229             	3.40617716e+02
230             	3.40670335e+02
231             	3.40722847e+02
232             	3.40774399e+02
233             	3.40825235e+02
234             	3.40875456e+02
235             	3.40925197e+02
236             	3.40974454e+02
237             	3.41023005e+02
238             	3.41070934e+02
239             	3.41118887e+02
240             	3.41164231e+02
241             	3.41209927e+02
242             	3.41255441e+02
243             	3.41300819e+02
244             	3.41346059e+02
245             	3.41390859e+02
246             	3.41435226e+02
247             	3.41479183e+02
248             	3.41522720e+02
249             	3.41565970e+02
250             	3.41609022e+02
251             	3.41649685e+02
252             	3.41690716e+02
253             	3.41731685e+02
254             	3.41772541e+02
255             	3.41811190e+02
256             	3.41850253e+02
257             	3.41889426e+02
258             	3.41928063e+02
259             	3.41966299e+02
260             	3.42004157e+02
261             	3.42041585e+02
262             	3.42078681e+02
263             	3.42115873e+02
264             	3.42150779e+02
265             	3.42186208e+02
266             	3.42221638e+02
267             	3.42257278e+02
268             	3.42291099e+02
269             	3.42325803e+02
270             	3.42360293e+02
271             	3.42394718e+02
272             	3.42429023e+02
273             	3.42463006e+02
274             	3.42496731e+02
275             	3.42528765e+02
276             	3.42561051e+02
277             	3.42593325e+02
278             	3.42625515e+02
279             	3.42655669e+02
280             	3.42686369e+02
281             	3.42716849e+02
282             	3.42747089e+02
283             	3.42776942e+02
284             	3.42806374e+02
285             	3.42835405e+02
286             	3.42864085e+02
287             	3.42892647e+02
288             	3.42919518e+02
289             	3.42946938e+02
290             	3.42974513e+02
291             	3.43002390e+02
292             	3.43028129e+02
293             	3.43054658e+02
294             	3.43081276e+02
295             	3.43107958e+02
296             	3.43134544e+02
297             	3.43161085e+02
298             	3.43185670e+02
299             	3.43210865e+02
300             	3.43236152e+02
301             	3.43261660e+02
302             	3.43285168e+02
303             	3.43309255e+02
304             	3.43333343e+02
305             	3.43357319e+02
306             	3.43381079e+02
307             	3.43404569e+02
308             	3.43427770e+02
309             	3.43450672e+02
310             	3.43473307e+02
311             	3.43495827e+02
312             	3.43518691e+02
313             	3.43539019e+02
314             	3.43560152e+02
315             	3.43581481e+02
316             	3.43603087e+02
317             	3.43622855e+02
318             	3.43643413e+02
319             	3.43664159e+02
320             	3.43684953e+02
321             	3.43705966e+02
322             	3.43724832e+02
323             	3.43744439e+02
324             	3.43764307e+02
325             	3.43784484e+02
326             	3.43802566e+02
327             	3.43821369e+02
328             	3.43840305e+02
329             	3.43859232e+02
330             	3.43878038e+02
331             	3.43896746e+02
332             	3.43915330e+02
333             	3.43933718e+02
334             	3.43951777e+02
335             	3.43969806e+02
336             	3.43985333e+02
337             	3.44001756e+02
338             	3.44018458e+02
339             	3.44035438e+02
340             	3.44050634e+02
341             	3.44066723e+02
342             	3.44083097e+02
343             	3.44099561e+02
344             	3.44116273e+02
345             	3.44130905e+02
346             	3.44146349e+02
347             	3.44162055e+02
348             	3.44178098e+02
349             	3.44192255e+02
350             	3.44207165e+02
351             	3.44222235e+02
352             	3.44237462e+02
353             	3.44252948e+02
354             	3.44266039e+02
355             	3.44279931e+02
356             	3.44293944e+02
357             	3.44307999e+02
358             	3.44322051e+02
359             	3.44336184e+02
360             	3.44348496e+02
361             	3.44361611e+02
362             	3.44374924e+02
363             	3.44388370e+02
364             	3.44402132e+02
365             	3.44413847e+02
366             	3.44426368e+02
367             	3.44439162e+02
368             	3.44452039e+02
369             	3.44465138e+02
370             	3.44476363e+02
371             	3.44488384e+02
372             	3.44500634e+02
373             	3.44513102e+02
374             	3.44523908e+02
375             	3.44535472e+02
376             	3.44547243e+02
377             	3.44559199e+02
378             	3.44569442e+02
379             	3.44580442e+02
380             	3.44591613e+02
381             	3.44602851e+02
382             	3.44614167e+02
383             	3.44625722e+02
384             	3.44635157e+02
385             	3.44645425e+02
386             	3.44656009e+02
387             	3.44666859e+02
388             	3.44676027e+02
389             	3.44686007e+02
390             	3.44696271e+02
391             	3.44706775e+02
392             	3.44717498e+02
393             	3.44726204e+02
394             	3.44735761e+02
395             	3.44745566e+02
396             	3.44755531e+02
397             	3.44765831e+02
398             	3.44773998e+02
399             	3.44783028e+02
400             	3.44792311e+02
401             	3.44801796e+02
402             	3.44811650e+02
403             	3.44819238e+02
404             	3.44827718e+02
405             	3.44836401e+02
406             	3.44845236e+02
407             	3.44854233e+02
408             	3.44863533e+02
409             	3.44870543e+02
410             	3.44878470e+02
411             	3.44886694e+02
412             	3.44895191e+02
413             	3.44902024e+02
414             	3.44909687e+02
415             	3.44917648e+02
416             	3.44925925e+02
417             	3.44932573e+02
418             	3.44940059e+02
419             	3.44947798e+02
420             	3.44955770e+02
421             	3.44964104e+02
422             	3.44970346e+02
423             	3.44977462e+02
424             	3.44984873e+02
425             	3.44992533e+02
426             	3.45000598e+02
427             	3.45006404e+02
428             	3.45013107e+02
429             	3.45020106e+02
430             	3.45027337e+02
431             	3.45034915e+02
432             	3.45040383e+02
433             	3.45046719e+02
434             	3.45053345e+02
435             	3.45060197e+02
436             	3.45067316e+02
437             	3.45072471e+02
438             	3.45078491e+02
439             	3.45084813e+02
440             	3.45091387e+02
441             	3.45098393e+02
442             	3.45103164e+02
443             	3.45108848e+02
444             	3.45114844e+02
445             	3.45121108e+02
446             	3.45127825e+02
447             	3.45132318e+02
448             	3.45137736e+02
449             	3.45143485e+02
450             	3.45149506e+02
451             	3.45155925e+02
452             	3.45160203e+02
453             	3.45165392e+02
454             	3.45170902e+02
455             	3.45176670e+02
456             	3.45182778e+02
457             	3.45186868e+02
458             	3.45191857e+02
459             	3.45197156e+02
460             	3.45202704e+02
461             	3.45208620e+02
462             	3.45212450e+02
463             	3.45217166e+02
464             	3.45222198e+02
465             	3.45227481e+02
466             	3.45233110e+02
467             	3.45236659e+02
468             	3.45241111e+02
469             	3.45245863e+02
470             	3.45250862e+02
471             	3.45256243e+02
472             	3.45259556e+02
473             	3.45263783e+02
474             	3.45268338e+02
475             	3.45273167e+02
476             	3.45278467e+02
477             	3.45281557e+02
478             	3.45285571e+02
479             	3.45289929e+02
480             	3.45294530e+02
481             	3.45299471e+02
482             	3.45302426e+02
483             	3.45306269e+02
484             	3.45310435e+02
485             	3.45314892e+02
486             	3.45319803e+02
487             	3.45322504e+02
488             	3.45326130e+02
489             	3.45330098e+02
490             	3.45334356e+02
491             	3.45339074e+02
492             	3.45341600e+02
493             	3.45345036e+02
494             	3.45348797e+02
495             	3.45352821e+02
496             	3.45357202e+02
497             	3.45359577e+02
498             	3.45362865e+02
499             	3.45366486e+02
500             	3.45370391e+02
501             	3.45374764e+02
502             	3.45376938e+02
503             	3.45380043e+02
504             	3.45383494e+02
505             	3.45387232e+02
506             	3.45391357e+02
507             	3.45393416e+02
508             	3.45396387e+02
509             	3.45399698e+02
510             	3.45403283e+02
511             	3.45407294e+02
512             	3.45409207e+02
513             	3.45412036e+02
514             	3.45415209e+02
515             	3.45418668e+02
516             	3.45422606e+02
517             	3.45424352e+02
518             	3.45427023e+02
519             	3.45430036e+02
520             	3.45433329e+02
521             	3.45437057e+02
522             	3.45438685e+02
523             	3.45441225e+02
524             	3.45444106e+02
525             	3.45447257e+02
526             	3.45450820e+02
527             	3.45452320e+02
528             	3.45454730e+02
529             	3.45457484e+02
530             	3.45460519e+02
531             	3.45463979e+02
532             	3.45465357e+02
533             	3.45467648e+02
534             	3.45470285e+02
535             	3.45473202e+02
536             	3.45476545e+02
537             	3.45477817e+02
538             	3.45480000e+02
539             	3.45482533e+02
540             	3.45485351e+02
541             	3.45488638e+02
542             	3.45489789e+02
543             	3.45491859e+02
544             	3.45494282e+02
545             	3.45496992e+02
546             	3.45500139e+02
547             	3.45501201e+02
548             	3.45503178e+02
549             	3.45505505e+02
550             	3.45508114e+02
551             	3.45511164e+02
552             	3.45512130e+02
553             	3.45514004e+02
554             	3.45516228e+02
555             	3.45518736e+02
556             	3.45521720e+02
557             	3.45522565e+02
558             	3.45524325e+02
559             	3.45526436e+02
560             	3.45528831e+02
561             	3.45531664e+02
562             	3.45532427e+02
563             	3.45534099e+02
564             	3.45536122e+02
565             	3.45538432e+02
566             	3.45541191e+02
567             	3.45541861e+02
568             	3.45543443e+02
569             	3.45545382e+02
570             	3.45547611e+02
571             	3.45550321e+02
572             	3.45550904e+02
573             	3.45552403e+02
574             	3.45554262e+02
575             	3.45556418e+02
576             	3.45559078e+02
577             	3.45559579e+02
578             	3.45561003e+02
579             	3.45562788e+02
580             	3.45564867e+02
581             	3.45567437e+02
582             	3.45567870e+02
583             	3.45569222e+02
584             	3.45570935e+02
585             	3.45572935e+02
586             	3.45575390e+02
587             	3.45575765e+02
588             	3.45577050e+02
589             	3.45578692e+02
590             	3.45580620e+02
591             	3.45583000e+02
592             	3.45583305e+02
593             	3.45584520e+02
594             	3.45586090e+02
595             	3.45587950e+02
596             	3.45590289e+02
597             	3.45590515e+02
598             	3.45591653e+02
599             	3.45593154e+02
600             	3.45594948e+02
601             	3.45597240e+02
602             	3.45597399e+02
603             	3.45598473e+02
604             	3.45599909e+02
605             	3.45601645e+02
606             	3.45603878e+02
607             	3.45603979e+02
608             	3.45604999e+02
609             	3.45606383e+02
610             	3.45608063e+02
611             	3.45610241e+02
612             	3.45610292e+02
613             	3.45611255e+02
614             	3.45612585e+02
615             	3.45614212e+02
616             	3.45616339e+02
617             	3.45616329e+02
618             	3.45617238e+02
619             	3.45618508e+02
620             	3.45620074e+02
621             	3.45622142e+02
622             	3.45622077e+02
623             	3.45622931e+02
624             	3.45624151e+02
625             	3.45625671e+02
626             	3.45627698e+02
627             	3.45627592e+02
628             	3.45628404e+02
629             	3.45629586e+02
630             	3.45631065e+02
631             	3.45633060e+02
632             	3.45632904e+02
633             	3.45633667e+02
634             	3.45634794e+02
635             	3.45636220e+02
636             	3.45638147e+02
637             	3.45637939e+02
638             	3.45638649e+02
639             	3.45639724e+02
640             	3.45641099e+02
641             	3.45642972e+02
642             	3.45642722e+02
643             	3.45643391e+02
644             	3.45644427e+02
645             	3.45645763e+02
646             	3.45647615e+02
647             	3.45647319e+02
648             	3.45647946e+02
649             	3.45648940e+02
650             	3.45650239e+02
651             	3.45652052e+02
652             	3.45651723e+02
653             	3.45652316e+02
654             	3.45653277e+02
655             	3.45654541e+02
656             	3.45656314e+02
657             	3.45655953e+02
658             	3.45656512e+02
659             	3.45657439e+02
660             	3.45658669e+02
661             	3.45660418e+02
662             	3.45660018e+02
663             	3.45660541e+02
664             	3.45661431e+02
665             	3.45662625e+02
666             	3.45664318e+02
667             	3.45663886e+02
668             	3.45664376e+02
669             	3.45665231e+02
670             	3.45666393e+02
671             	3.45668075e+02
672             	3.45667598e+02
673             	3.45668045e+02
674             	3.45668861e+02
675             	3.45669981e+02
676             	3.45671603e+02
677             	3.45671103e+02
678             	3.45671524e+02
679             	3.45672311e+02
680             	3.45673406e+02
681             	3.45675017e+02
682             	3.45674486e+02
683             	3.45674883e+02
684             	3.45675648e+02
685             	3.45676722e+02
686             	3.45678322e+02
687             	3.45677762e+02
688             	3.45678129e+02
689             	3.45678864e+02
690             	3.45679907e+02
691             	3.45681462e+02
692             	3.45680871e+02
693             	3.45681206e+02
694             	3.45681905e+02
695             	3.45682914e+02
696             	3.45684435e+02
697             	3.45683812e+02
698             	3.45684119e+02
699             	3.45684797e+02
700             	3.45685787e+02
701             	3.45687306e+02
702             	3.45686659e+02
703             	3.45686945e+02
704             	3.45687603e+02
705             	3.45688570e+02
706             	3.45690024e+02
707             	3.45689365e+02
708             	3.45689634e+02
709             	3.45690267e+02
710             	3.45691209e+02
711             	3.45692667e+02
712             	3.45691973e+02
713             	3.45692216e+02
714             	3.45692825e+02
715             	3.45693747e+02
716             	3.45695201e+02
717             	3.45694484e+02
718             	3.45694701e+02
719             	3.45695289e+02
720             	3.45696185e+02
721             	3.45697580e+02
722             	3.45696856e+02
723             	3.45697062e+02
724             	3.45697633e+02
725             	3.45698520e+02
726             	3.45699929e+02
727             	3.45699170e+02
728             	3.45699342e+02
729             	3.45699884e+02
730             	3.45700744e+02
731             	3.45702141e+02
732             	3.45701350e+02
733             	3.45701499e+02
734             	3.45702019e+02
735             	3.45702860e+02
736             	3.45704225e+02
737             	3.45703431e+02
738             	3.45703575e+02
739             	3.45704089e+02
740             	3.45704924e+02
741             	3.45706276e+02
742             	3.45705474e+02
743             	3.45705606e+02
744             	3.45706103e+02
745             	3.45706919e+02
746             	3.45708252e+02
747             	3.45707428e+02
748             	3.45707537e+02
749             	3.45708012e+02
750             	3.45708804e+02
751             	3.45710089e+02
752             	3.45709245e+02
753             	3.45709335e+02
754             	3.45709787e+02
755             	3.45710559e+02
756             	3.45711836e+02
757             	3.45710975e+02
758             	3.45711051e+02
759             	3.45711494e+02
760             	3.45712264e+02
761             	3.45713563e+02
762             	3.45712690e+02
763             	3.45712757e+02
764             	3.45713195e+02
765             	3.45713954e+02
766             	3.45715253e+02
767             	3.45714360e+02
768             	3.45714410e+02
769             	3.45714827e+02
770             	3.45715571e+02
771             	3.45716850e+02
772             	3.45715938e+02
773             	3.45715969e+02
774             	3.45716369e+02
775             	3.45717093e+02
776             	3.45718340e+02
777             	3.45717416e+02
778             	3.45717435e+02
779             	3.45717821e+02
780             	3.45718533e+02
781             	3.45719785e+02
782             	3.45718840e+02
783             	3.45718840e+02
784             	3.45719211e+02
785             	3.45719910e+02
786             	3.45721152e+02
787             	3.45720194e+02
788             	3.45720183e+02
789             	3.45720543e+02
790             	3.45721232e+02
791             	3.45722453e+02
792             	3.45721489e+02
793             	3.45721470e+02
794             	3.45721820e+02
795             	3.45722498e+02
796             	3.45723683e+02
797             	3.45722720e+02
798             	3.45722697e+02
799             	3.45723043e+02
800             	3.45723715e+02
801             	3.45724900e+02
802             	3.45723929e+02
803             	3.45723899e+02
804             	3.45724237e+02
805             	3.45724904e+02
806             	3.45726103e+02
807             	3.45725114e+02
808             	3.45725069e+02
809             	3.45725395e+02
810             	3.45726051e+02
811             	3.45727248e+02
812             	3.45726243e+02
813             	3.45726184e+02
814             	3.45726496e+02
815             	3.45727135e+02
816             	3.45728289e+02
817             	3.45727281e+02
818             	3.45727216e+02
819             	3.45727520e+02
820             	3.45728149e+02
821             	3.45729278e+02
822             	3.45728266e+02
823             	3.45728194e+02
824             	3.45728491e+02
825             	3.45729114e+02
826             	3.45730242e+02
827             	3.45729222e+02
828             	3.45729142e+02
829             	3.45729431e+02
830             	3.45730049e+02
831             	3.45731187e+02
832             	3.45730155e+02
833             	3.45730067e+02
834             	3.45730349e+02
835             	3.45730961e+02
836             	3.45732086e+02
837             	3.45731046e+02
838             	3.45730950e+02
839             	3.45731227e+02
840             	3.45731828e+02
841             	3.45732962e+02
842             	3.45731912e+02
843             	3.45731808e+02
844             	3.45732076e+02
845             	3.45732664e+02
846             	3.45733766e+02
847             	3.45732715e+02
848             	3.45732608e+02
849             	3.45732901e+02
850             	3.45733488e+02
851             	3.45734600e+02
852             	3.45733540e+02
853             	3.45733418e+02
854             	3.45733706e+02
855             	3.45734289e+02
856             	3.45735370e+02
857             	3.45734307e+02
858             	3.45734179e+02
859             	3.45734456e+02
860             	3.45735030e+02
861             	3.45736107e+02
862             	3.45735035e+02
863             	3.45734897e+02
864             	3.45735161e+02
865             	3.45735737e+02
866             	3.45736817e+02
867             	3.45735733e+02
868             	3.45735586e+02
869             	3.45735843e+02
870             	3.45736404e+02
871             	3.45737481e+02
872             	3.45736387e+02
873             	3.45736231e+02
874             	3.45736477e+02
875             	3.45737027e+02
876             	3.45738076e+02
877             	3.45736980e+02
878             	3.45736819e+02
879             	3.45737057e+02
880             	3.45737603e+02
881             	3.45738660e+02
882             	3.45737558e+02
883             	3.45737392e+02
884             	3.45737626e+02
885             	3.45738164e+02
886             	3.45739201e+02
887             	3.45738095e+02
888             	3.45737926e+02
889             	3.45738154e+02
890             	3.45738701e+02
891             	3.45739748e+02
892             	3.45738637e+02
893             	3.45738463e+02
894             	3.45738685e+02
895             	3.45739217e+02
896             	3.45740251e+02
897             	3.45739138e+02
898             	3.45738959e+02
899             	3.45739176e+02
900             	3.45739699e+02
901             	3.45740710e+02
902             	3.45739593e+02
903             	3.45739412e+02
904             	3.45739622e+02
905             	3.45740140e+02
906             	3.45741144e+02
907             	3.45740029e+02
908             	3.45739847e+02
909             	3.45740055e+02
910             	3.45740571e+02
911             	3.45741582e+02
912             	3.45740461e+02
913             	3.45740280e+02
914             	3.45740489e+02
915             	3.45741005e+02
916             	3.45742004e+02
917             	3.45740879e+02
918             	3.45740694e+02
919             	3.45740896e+02
920             	3.45741403e+02
921             	3.45742386e+02
922             	3.45741259e+02
923             	3.45741071e+02
924             	3.45741269e+02
925             	3.45741774e+02
926             	3.45742756e+02
927             	3.45741627e+02
928             	3.45741437e+02
929             	3.45741632e+02
930             	3.45742133e+02
931             	3.45743111e+02
932             	3.45741980e+02
933             	3.45741787e+02