# Region        : cellZone component_0
# Cells         : 192
# Volume        : 3.69586429e-01
# Time          	volAverage(T)
1               	3.05596246e+02
2               	3.11000544e+02
3               	3.14769149e+02
4               	3.17453637e+02
5               	3.20479551e+02
6               	3.24215774e+02
7               	3.27838198e+02
8               	3.30678165e+02
9               	3.33100124e+02
10              	3.35763535e+02
11              	3.38647579e+02
12              	3.41235139e+02
13              	3.43344435e+02
14              	3.45251677e+02
15              	3.47339924e+02
16              	3.49564913e+02
17              	3.51638881e+02
18              	3.53260500e+02
19              	3.54838936e+02
20              	3.56541670e+02
21              	3.58506493e+02
22              	3.60249052e+02
23              	3.61674188e+02
24              	3.63012041e+02
25              	3.64404132e+02
26              	3.65782098e+02
27              	3.67031289e+02
28              	3.68127164e+02
29              	3.69163902e+02
30              	3.70210643e+02
31              	3.71217311e+02
32              	3.72110755e+02
33              	3.72861348e+02
34              	3.73640618e+02
35              	3.74437138e+02
36              	3.75162219e+02
37              	3.75749455e+02
38              	3.76390922e+02
39              	3.77318859e+02
40              	3.78466926e+02
41              	3.79331017e+02
42              	3.79707021e+02
43              	3.80094685e+02
44              	3.80845431e+02
45              	3.81564580e+02
46              	3.81832939e+02
47              	3.81774933e+02
48              	3.82041907e+02
49              	3.82789219e+02
50              	3.83530723e+02
51              	3.83779598e+02
52              	3.83998190e+02
53              	3.84744200e+02
54              	3.85967444e+02
55              	3.86669904e+02
56              	3.86662502e+02
57              	3.86769985e+02
58              	3.87512495e+02
59              	3.88340543e+02
60              	3.88434919e+02
61              	3.88056694e+02
62              	3.88168564e+02
63              	3.89077741e+02
64              	3.89801799e+02
65              	3.89536743e+02
66              	3.89045091e+02
67              	3.89584078e+02
68              	3.91017555e+02
69              	3.91671315e+02
70              	3.90924973e+02
71              	3.90421302e+02
72              	3.91363408e+02
73              	3.92725553e+02
74              	3.92630962e+02
75              	3.91595234e+02
76              	3.91423928e+02
77              	3.92835506e+02
78              	3.94224429e+02
79              	3.93970129e+02
80              	3.93269757e+02
81              	3.93717462e+02
82              	3.95243401e+02
83              	3.96163013e+02
84              	3.95645135e+02
85              	3.94975601e+02
86              	3.95429034e+02
87              	3.96565497e+02
88              	3.96813832e+02
89              	3.95945198e+02
90              	3.95521581e+02
91              	3.96506399e+02
92              	3.97792478e+02
93              	3.97640024e+02
94              	3.96657116e+02
95              	3.96538253e+02
96              	3.97774211e+02
97              	3.98805683e+02
98              	3.98232812e+02
99              	3.97444373e+02
100             	3.97986549e+02
101             	3.99503881e+02
102             	4.00264369e+02
103             	3.99687613e+02
104             	3.99162438e+02
105             	3.99776360e+02
106             	4.00897262e+02
107             	4.00999317e+02
108             	4.00080877e+02
109             	3.99637896e+02
110             	4.00580659e+02
111             	4.01667628e+02
112             	4.01091482e+02
113             	3.99905007e+02
114             	3.99855522e+02
115             	4.01198521e+02
116             	4.02200287e+02
117             	4.01553314e+02
118             	4.00719980e+02
119             	4.01180366e+02
120             	4.02448262e+02
121             	4.02720274e+02
122             	4.01671892e+02
123             	4.00994442e+02
124             	4.01753037e+02
125             	4.02855288e+02
126             	4.02568422e+02
127             	4.01487434e+02
128             	4.01259552e+02
129             	4.02370885e+02
130             	4.03362153e+02
131             	4.02801487e+02
132             	4.01876525e+02
133             	4.02087341e+02
134             	4.03318065e+02
135             	4.03862781e+02
136             	4.02988750e+02
137             	4.02281949e+02
138             	4.02962349e+02
139             	4.04206843e+02
140             	4.04260373e+02
141             	4.03288861e+02
142             	4.02960750e+02
143             	4.04066593e+02
144             	4.05199836e+02
145             	4.04713600e+02
146             	4.03646656e+02
147             	4.03640904e+02
148             	4.04819814e+02
149             	4.05544290e+02
150             	4.04756959e+02
151             	4.03852178e+02
152             	4.04208875e+02
153             	4.05387456e+02
154             	4.05631574e+02
155             	4.04592813e+02
156             	4.04003242e+02
157             	4.04919164e+02
158             	4.06099119e+02
159             	4.05708146e+02
160             	4.04577961e+02
161             	4.04426837e+02
162             	4.05602472e+02
163             	4.06496895e+02
164             	4.05836391e+02
165             	4.04908648e+02
166             	4.05166769e+02
167             	4.06361490e+02
168             	4.06812350e+02
169             	4.05950820e+02
170             	4.05293058e+02
171             	4.05934046e+02
172             	4.07049081e+02
173             	4.06942119e+02
174             	4.05870120e+02
175             	4.05487398e+02
176             	4.06529609e+02
177             	4.07562001e+02
178             	4.06932869e+02
179             	4.05792142e+02
180             	4.05797830e+02
181             	4.07021639e+02
182             	4.07724623e+02
183             	4.06882015e+02
184             	4.05995378e+02
185             	4.06445448e+02
186             	4.07640861e+02
187             	4.07804101e+02
188             	4.06749138e+02
189             	4.06208448e+02
190             	4.07148775e+02
191             	4.08245883e+02
192             	4.07736428e+02
193             	4.06587068e+02
194             	4.06484450e+02
195             	4.07649531e+02
196             	4.08430073e+02
197             	4.07671613e+02
198             	4.06744609e+02
199             	4.07060982e+02
200             	4.08238264e+02
201             	4.08542399e+02
202             	4.07533508e+02
203             	4.06856985e+02
204             	4.07615846e+02
205             	4.08723858e+02
206             	4.08384002e+02
207             	4.07200233e+02
208             	4.06889055e+02
209             	4.07981535e+02
210             	4.08912291e+02
211             	4.08188440e+02
212             	4.07105520e+02
213             	4.07232805e+02
214             	4.08424655e+02
215             	4.08919518e+02
216             	4.07987041e+02
217             	4.07207904e+02
218             	4.07810375e+02
219             	4.08958653e+02
220             	4.08868393e+02
221             	4.07764936e+02
222             	4.07332730e+02
223             	4.08364878e+02
224             	4.09437567e+02
225             	4.08831612e+02
226             	4.07663570e+02
227             	4.07612420e+02
228             	4.08795592e+02
229             	4.09486585e+02
230             	4.08599152e+02
231             	4.07639244e+02
232             	4.08028484e+02
233             	4.09203482e+02
234             	4.09339254e+02
235             	4.08227546e+02
236             	4.07653007e+02
237             	4.08613804e+02
238             	4.09744892e+02
239             	4.09221656e+02
240             	4.08036808e+02
241             	4.07898399e+02
242             	4.09050140e+02
243             	4.09822732e+02
244             	4.09000087e+02
245             	4.07987713e+02
246             	4.08247913e+02
247             	4.09395935e+02
248             	4.09636201e+02
249             	4.08527833e+02
250             	4.07827061e+02
251             	4.08656399e+02
252             	4.09787399e+02
253             	4.09340869e+02
254             	4.08135033e+02
255             	4.07917286e+02
256             	4.09077717e+02
257             	4.09960097e+02
258             	4.09189474e+02
259             	4.08146188e+02
260             	4.08363514e+02
261             	4.09561029e+02
262             	4.09957778e+02
263             	4.08975291e+02
264             	4.08251633e+02
265             	4.08949151e+02
266             	4.10075742e+02
267             	4.09831101e+02
268             	4.08682392e+02
269             	4.08319629e+02
270             	4.09387224e+02
271             	4.10371630e+02
272             	4.09669805e+02
273             	4.08519539e+02
274             	4.08566179e+02
275             	4.09770995e+02
276             	4.10336883e+02
277             	4.09351818e+02
278             	4.08453041e+02
279             	4.08995583e+02
280             	4.10177435e+02
281             	4.10099243e+02
282             	4.08916351e+02
283             	4.08393761e+02
284             	4.09411992e+02
285             	4.10530190e+02
286             	4.09892984e+02
287             	4.08632047e+02
288             	4.08507779e+02
289             	4.09696479e+02
290             	4.10446325e+02
291             	4.09570258e+02
292             	4.08558888e+02
293             	4.08873910e+02
294             	4.10051106e+02
295             	4.10274551e+02
296             	4.09200318e+02
297             	4.08573635e+02
298             	4.09449776e+02
299             	4.10580893e+02
300             	4.10122150e+02
301             	4.08933029e+02
302             	4.08730368e+02
303             	4.09859496e+02
304             	4.10675172e+02
305             	4.09853826e+02
306             	4.08792474e+02
307             	4.09011585e+02
308             	4.10187990e+02
309             	4.10495967e+02
310             	4.09409648e+02
311             	4.08681974e+02
312             	4.09473812e+02
313             	4.10624464e+02
314             	4.10238096e+02
315             	4.09030001e+02
316             	4.08749797e+02
317             	4.09868485e+02
318             	4.10772268e+02
319             	4.10002785e+02
320             	4.08906359e+02
321             	4.09059844e+02
322             	4.10246349e+02
323             	4.10662700e+02
324             	4.09631561e+02
325             	4.08839403e+02
326             	4.09515008e+02
327             	4.10665285e+02
328             	4.10407956e+02
329             	4.09210480e+02
330             	4.08818846e+02
331             	4.09892437e+02
332             	4.10896431e+02
333             	4.10182102e+02
334             	4.09005549e+02
335             	4.09036275e+02
336             	4.10237964e+02
337             	4.10818180e+02
338             	4.09865880e+02
339             	4.08982847e+02
340             	4.09499646e+02
341             	4.10672480e+02
342             	4.10650902e+02
343             	4.09507342e+02
344             	4.08981167e+02
345             	4.09974308e+02
346             	4.11082652e+02
347             	4.10460448e+02
348             	4.09209500e+02
349             	4.09080785e+02
350             	4.10269253e+02
351             	4.11019122e+02
352             	4.10121385e+02
353             	4.09096533e+02
354             	4.09429161e+02
355             	4.10626459e+02
356             	4.10828126e+02
357             	4.09706313e+02
358             	4.09069450e+02
359             	4.09986479e+02
360             	4.11126086e+02
361             	4.10605907e+02
362             	4.09392220e+02
363             	4.09228609e+02
364             	4.10389851e+02
365             	4.11182136e+02
366             	4.10337722e+02
367             	4.09304833e+02
368             	4.09584775e+02
369             	4.10772449e+02
370             	4.11024357e+02
371             	4.09907202e+02
372             	4.09219843e+02
373             	4.10080686e+02
374             	4.11216768e+02
375             	4.10718524e+02
376             	4.09476197e+02
377             	4.09255876e+02
378             	4.10403052e+02
379             	4.11227586e+02
380             	4.10382018e+02
381             	4.09304056e+02
382             	4.09534246e+02
383             	4.10718561e+02
384             	4.11021913e+02
385             	4.09937918e+02
386             	4.09210764e+02
387             	4.09990316e+02
388             	4.11130396e+02
389             	4.10758371e+02
390             	4.09566784e+02
391             	4.09288861e+02
392             	4.10384344e+02
393             	4.11264649e+02
394             	4.10496877e+02
395             	4.09398488e+02
396             	4.09535738e+02
397             	4.10712317e+02
398             	4.11130046e+02
399             	4.10098543e+02
400             	4.09304490e+02
401             	4.09986226e+02
402             	4.11138350e+02
403             	4.10893466e+02
404             	4.09714204e+02
405             	4.09331864e+02
406             	4.10415504e+02
407             	4.11441124e+02
408             	4.10747423e+02
409             	4.09564832e+02
410             	4.09577330e+02
411             	4.10768372e+02
412             	4.11346541e+02
413             	4.10370678e+02
414             	4.09448439e+02
415             	4.09932388e+02
416             	4.11091964e+02
417             	4.11056611e+02
418             	4.09863857e+02
419             	4.09297808e+02
420             	4.10295045e+02
421             	4.11418247e+02
422             	4.10785469e+02
423             	4.09520162e+02
424             	4.09393765e+02
425             	4.10577832e+02
426             	4.11312523e+02
427             	4.10406404e+02
428             	4.09381504e+02
429             	4.09699747e+02
430             	4.10875768e+02
431             	4.11075166e+02
432             	4.09969704e+02
433             	4.09331414e+02
434             	4.10219192e+02
435             	4.11341232e+02
436             	4.10839421e+02
437             	4.09629714e+02
438             	4.09437948e+02
439             	4.10565496e+02
440             	4.11339629e+02
441             	4.10482601e+02
442             	4.09422971e+02
443             	4.09670452e+02
444             	4.10848840e+02
445             	4.11114286e+02
446             	4.10010948e+02
447             	4.09324325e+02
448             	4.10176789e+02
449             	4.11326677e+02
450             	4.10873775e+02
451             	4.09655320e+02
452             	4.09422758e+02
453             	4.10550974e+02
454             	4.11391292e+02
455             	4.10575581e+02
456             	4.09494923e+02
457             	4.09697267e+02
458             	4.10882696e+02
459             	4.11225185e+02
460             	4.10159613e+02
461             	4.09423589e+02
462             	4.10194527e+02
463             	4.11351209e+02
464             	4.10996106e+02
465             	4.09793839e+02
466             	4.09495104e+02
467             	4.10607703e+02
468             	4.11532719e+02
469             	4.10771058e+02
470             	4.09652660e+02
471             	4.09781981e+02
472             	4.10980023e+02
473             	4.11438207e+02
474             	4.10427601e+02
475             	4.09618520e+02
476             	4.10261917e+02
477             	4.11420154e+02
478             	4.11213039e+02
479             	4.10025255e+02
480             	4.09599219e+02
481             	4.10653464e+02
482             	4.11678853e+02
483             	4.10966690e+02
484             	4.09746800e+02
485             	4.09722126e+02
486             	4.10915708e+02
487             	4.11529724e+02
488             	4.10563799e+02
489             	4.09618066e+02
490             	4.10082465e+02
491             	4.11263554e+02
492             	4.11281711e+02
493             	4.10130661e+02
494             	4.09572279e+02
495             	4.10548275e+02
496             	4.11666679e+02
497             	4.11067714e+02
498             	4.09819177e+02
499             	4.09674765e+02
500             	4.10842498e+02
501             	4.11592066e+02
502             	4.10701148e+02
503             	4.09660979e+02
504             	4.09958518e+02
505             	4.11134759e+02
506             	4.11332532e+02
507             	4.10186524e+02
508             	4.09515181e+02
509             	4.10414122e+02
510             	4.11548569e+02
511             	4.11002522e+02
512             	4.09756879e+02
513             	4.09579424e+02
514             	4.10736985e+02
515             	4.11517689e+02
516             	4.10646882e+02
517             	4.09592921e+02
518             	4.09863149e+02
519             	4.11039237e+02
520             	4.11278780e+02
521             	4.10161538e+02
522             	4.09471051e+02
523             	4.10322020e+02
524             	4.11451452e+02
525             	4.10969721e+02
526             	4.09748406e+02
527             	4.09534627e+02
528             	4.10672004e+02
529             	4.11497184e+02
530             	4.10678174e+02
531             	4.09621279e+02
532             	4.09850797e+02
533             	4.11032627e+02
534             	4.11353618e+02
535             	4.10293461e+02
536             	4.09573878e+02
537             	4.10347334e+02
538             	4.11491304e+02
539             	4.11126655e+02
540             	4.09922502e+02
541             	4.09621443e+02
542             	4.10725389e+02
543             	4.11633545e+02
544             	4.10845791e+02
545             	4.09707934e+02
546             	4.09830451e+02
547             	4.11020745e+02
548             	4.11448477e+02
549             	4.10392270e+02
550             	4.09569509e+02
551             	4.10236288e+02
552             	4.11397986e+02
553             	4.11145232e+02
554             	4.09938630e+02
555             	4.09538149e+02
556             	4.10606823e+02
557             	4.11608830e+02
558             	4.10882335e+02
559             	4.09682622e+02
560             	4.09690363e+02
561             	4.10884642e+02
562             	4.11456542e+02
563             	4.10473702e+02
564             	4.09561223e+02
565             	4.10066447e+02
566             	4.11237433e+02
567             	4.11200469e+02
568             	4.10046956e+02
569             	4.09522008e+02
570             	4.10521401e+02
571             	4.11630362e+02
572             	4.11008851e+02
573             	4.09755882e+02
574             	4.09621899e+02
575             	4.10794702e+02
576             	4.11542290e+02
577             	4.10650055e+02
578             	4.09615466e+02
579             	4.09925880e+02
580             	4.11110122e+02
581             	4.11309958e+02
582             	4.10179064e+02
583             	4.09527282e+02
584             	4.10437868e+02
585             	4.11571286e+02
586             	4.11029389e+02
587             	4.09795836e+02
588             	4.09627512e+02
589             	4.10791272e+02
590             	4.11578397e+02
591             	4.10717964e+02
592             	4.09674500e+02
593             	4.09955054e+02
594             	4.11141530e+02
595             	4.11384344e+02
596             	4.10259951e+02
597             	4.09570987e+02
598             	4.10435883e+02
599             	4.11570174e+02
600             	4.11060727e+02
601             	4.09815568e+02
602             	4.09602078e+02
603             	4.10750377e+02
604             	4.11568978e+02
605             	4.10719335e+02
606             	4.09644857e+02
607             	4.09881909e+02
608             	4.11068400e+02
609             	4.11364506e+02
610             	4.10275439e+02
611             	4.09558087e+02
612             	4.10357033e+02
613             	4.11498773e+02
614             	4.11098381e+02
615             	4.09890139e+02
616             	4.09616423e+02
617             	4.10720867e+02
618             	4.11589356e+02
619             	4.10790112e+02
620             	4.09677652e+02
621             	4.09828390e+02
622             	4.11008515e+02
623             	4.11395190e+02
624             	4.10329824e+02
625             	4.09531925e+02
626             	4.10228294e+02
627             	4.11387317e+02
628             	4.11089305e+02
629             	4.09873875e+02
630             	4.09507126e+02
631             	4.10597841e+02
632             	4.11579114e+02
633             	4.10837488e+02
634             	4.09665029e+02
635             	4.09721864e+02
636             	4.10918900e+02
637             	4.11449522e+02
638             	4.10458299e+02
639             	4.09582470e+02
640             	4.10138780e+02
641             	4.11304097e+02
642             	4.11196643e+02
643             	4.10023416e+02
644             	4.09524422e+02
645             	4.10553779e+02
646             	4.11665815e+02
647             	4.11015231e+02
648             	4.09758300e+02
649             	4.09660041e+02
650             	4.10870817e+02
651             	4.11616306e+02
652             	4.10715085e+02
653             	4.09706331e+02
654             	4.10061486e+02
655             	4.11258092e+02
656             	4.11432243e+02
657             	4.10302949e+02
658             	4.09672629e+02
659             	4.10594173e+02
660             	4.11725624e+02
661             	4.11174970e+02
662             	4.09935342e+02
663             	4.09763244e+02
664             	4.10921127e+02
665             	4.11703848e+02
666             	4.10831431e+02
667             	4.09775386e+02
668             	4.10054552e+02
669             	4.11247722e+02
670             	4.11497383e+02
671             	4.10379560e+02
672             	4.09689664e+02
673             	4.10545466e+02
674             	4.11674154e+02
675             	4.11178477e+02
676             	4.09945059e+02
677             	4.09729444e+02
678             	4.10853996e+02
679             	4.11654808e+02
680             	4.10803109e+02
681             	4.09733015e+02
682             	4.09974716e+02
683             	4.11170294e+02
684             	4.11470831e+02
685             	4.10374241e+02
686             	4.09649826e+02
687             	4.10448436e+02
688             	4.11588418e+02
689             	4.11160083e+02
690             	4.09923843e+02
691             	4.09643465e+02
692             	4.10755657e+02
693             	4.11630045e+02
694             	4.10828380e+02
695             	4.09725451e+02
696             	4.09899033e+02
697             	4.11087217e+02
698             	4.11475221e+02
699             	4.10426633e+02
700             	4.09648947e+02
701             	4.10355401e+02
702             	4.11503166e+02
703             	4.11211993e+02
704             	4.10017613e+02
705             	4.09657121e+02
706             	4.10737167e+02
707             	4.11703791e+02
708             	4.10969560e+02
709             	4.09808645e+02
710             	4.09865819e+02
711             	4.11056194e+02
712             	4.11583058e+02
713             	4.10590674e+02
714             	4.09708257e+02
715             	4.10254445e+02
716             	4.11421548e+02
717             	4.11305085e+02
718             	4.10110270e+02
719             	4.09594070e+02
720             	4.10624936e+02
721             	4.11748173e+02
722             	4.11101953e+02
723             	4.09840821e+02
724             	4.09740536e+02
725             	4.10952242e+02
726             	4.11699431e+02
727             	4.10794881e+02
728             	4.09776376e+02
729             	4.10119618e+02
730             	4.11304849e+02
731             	4.11468674e+02
732             	4.10320739e+02
733             	4.09667946e+02
734             	4.10572364e+02
735             	4.11689545e+02
736             	4.11118884e+02
737             	4.09856928e+02
738             	4.09677426e+02
739             	4.10840000e+02
740             	4.11618498e+02
741             	4.10741251e+02
742             	4.09695583e+02
743             	4.09987786e+02
744             	4.11178363e+02
745             	4.11416006e+02
746             	4.10300352e+02
747             	4.09626217e+02
748             	4.10495130e+02
749             	4.11630089e+02
750             	4.11144443e+02
751             	4.09925296e+02
752             	4.09716975e+02
753             	4.10853594e+02
754             	4.11664697e+02
755             	4.10822892e+02
756             	4.09752968e+02
757             	4.09975196e+02
758             	4.11145601e+02
759             	4.11434269e+02
760             	4.10328898e+02
761             	4.09599060e+02
762             	4.10402033e+02
763             	4.11549709e+02
764             	4.11135685e+02
765             	4.09918908e+02
766             	4.09653910e+02
767             	4.10778736e+02
768             	4.11654687e+02
769             	4.10864014e+02
770             	4.09772838e+02
771             	4.09943035e+02
772             	4.11126253e+02
773             	4.11513615e+02
774             	4.10468843e+02
775             	4.09689690e+02
776             	4.10387121e+02
777             	4.11537523e+02
778             	4.11247953e+02
779             	4.10039607e+02
780             	4.09665425e+02
781             	4.10747476e+02
782             	4.11723680e+02
783             	4.10970964e+02
784             	4.09786436e+02
785             	4.09837623e+02
786             	4.11038552e+02
787             	4.11568605e+02
788             	4.10568349e+02
789             	4.09686655e+02
790             	4.10240937e+02
791             	4.11402418e+02
792             	4.11292457e+02
793             	4.10112992e+02
794             	4.09607015e+02
795             	4.10617639e+02
796             	4.11708520e+02
797             	4.11057641e+02
798             	4.09802677e+02
799             	4.09693505e+02
800             	4.10884995e+02
801             	4.11619018e+02
802             	4.10727796e+02
803             	4.09725105e+02
804             	4.10071170e+02
805             	4.11260989e+02
806             	4.11441607e+02
807             	4.10313504e+02
808             	4.09676442e+02
809             	4.10588470e+02
810             	4.11716690e+02
811             	4.11166733e+02
812             	4.09926761e+02
813             	4.09752225e+02
814             	4.10907811e+02
815             	4.11679160e+02
816             	4.10794018e+02
817             	4.09735531e+02
818             	4.10015933e+02
819             	4.11200466e+02
820             	4.11423204e+02
821             	4.10279859e+02
822             	4.09594104e+02
823             	4.10477722e+02
824             	4.11615803e+02
825             	4.11093194e+02
826             	4.09851975e+02
827             	4.09654764e+02
828             	4.10799393e+02
829             	4.11590604e+02
830             	4.10733051e+02
831             	4.09671881e+02
832             	4.09919630e+02
833             	4.11091617e+02
834             	4.11356481e+02
835             	4.10256078e+02
836             	4.09550271e+02
837             	4.10364771e+02
838             	4.11496554e+02
839             	4.11064041e+02
840             	4.09855530e+02
841             	4.09613799e+02
842             	4.10734765e+02
843             	4.11590390e+02
844             	4.10797662e+02
845             	4.09723125e+02
846             	4.09913256e+02
847             	4.11096427e+02
848             	4.11461588e+02
849             	4.10406021e+02
850             	4.09643474e+02
851             	4.10370089e+02
852             	4.11517410e+02
853             	4.11188990e+02
854             	4.09972383e+02
855             	4.09627261e+02
856             	4.10726647e+02
857             	4.11678871e+02
858             	4.10907645e+02
859             	4.09741881e+02
860             	4.09830916e+02
861             	4.11038528e+02
862             	4.11537654e+02
863             	4.10520890e+02
864             	4.09666767e+02
865             	4.10270592e+02
866             	4.11438485e+02
867             	4.11280549e+02
868             	4.10097132e+02
869             	4.09631032e+02
870             	4.10664760e+02
871             	4.11721074e+02
872             	4.11037357e+02
873             	4.09800276e+02
874             	4.09735665e+02
875             	4.10927879e+02
876             	4.11598201e+02
877             	4.10660377e+02
878             	4.09683248e+02
879             	4.10091986e+02
880             	4.11272131e+02
881             	4.11354282e+02
882             	4.10206061e+02
883             	4.09611645e+02
884             	4.10558284e+02
885             	4.11676770e+02
886             	4.11099955e+02
887             	4.09855890e+02
888             	4.09700396e+02
889             	4.10864283e+02
890             	4.11626394e+02
891             	4.10749321e+02
892             	4.09711112e+02
893             	4.10004755e+02
894             	4.11188625e+02
895             	4.11414502e+02
896             	4.10293921e+02
897             	4.09629722e+02
898             	4.10514097e+02
899             	4.11648636e+02
900             	4.11130728e+02
901             	4.09892372e+02
902             	4.09691453e+02
903             	4.10847380e+02
904             	4.11648848e+02
905             	4.10785754e+02
906             	4.09725510e+02
907             	4.09995747e+02
908             	4.11198544e+02
909             	4.11475679e+02
910             	4.10373687e+02
911             	4.09680450e+02
912             	4.10523879e+02
913             	4.11670660e+02
914             	4.11226454e+02
915             	4.10008359e+02
916             	4.09764420e+02
917             	4.10886624e+02
918             	4.11728134e+02
919             	4.10905792e+02
920             	4.09817128e+02
921             	4.10009957e+02
922             	4.11188318e+02
923             	4.11525249e+02
924             	4.10441632e+02
925             	4.09679520e+02
926             	4.10422535e+02
927             	4.11560415e+02
928             	4.11199148e+02
929             	4.09983293e+02
930             	4.09659049e+02
931             	4.10747004e+02
932             	4.11657492e+02
933             	4.10888429e+02