# Region        : cellZone fluid
# Cells         : 9259
# Volume        : 1.77910257e+01
# Time          	volAverage(T)
1               	3.00000079e+02
2               	3.00000153e+02
3               	3.00000735e+02
4               	3.00001541e+02
5               	3.00002411e+02
6               	3.00003226e+02
7               	3.00004084e+02
8               	3.00005104e+02
9               	3.00006240e+02
10              	3.00007544e+02
11              	3.00009047e+02
12              	3.00010642e+02
13              	3.00012506e+02
14              	3.00014401e+02
15              	3.00016539e+02
16              	3.00018761e+02
17              	3.00021069e+02
18              	3.00023318e+02
19              	3.00025030e+02
20              	3.00027196e+02
21              	3.00029202e+02
22              	3.00031366e+02
23              	3.00033537e+02
24              	3.00035757e+02
25              	3.00038122e+02
26              	3.00040726e+02
27              	3.00043092e+02
28              	3.00045758e+02
29              	3.00048998e+02
30              	3.00051643e+02
31              	3.00054480e+02
32              	3.00057849e+02
33              	3.00061251e+02
34              	3.00064492e+02
35              	3.00068389e+02
36              	3.00071551e+02
37              	3.00074662e+02
38              	3.00078121e+02
39              	3.00081017e+02
40              	3.00084386e+02
41              	3.00088207e+02
42              	3.00092105e+02
43              	3.00095305e+02
44              	3.00098820e+02
45              	3.00102202e+02
46              	3.00106261e+02
47              	3.00110063e+02
48              	3.00113712e+02
49              	3.00117204e+02
50              	3.00120817e+02
51              	3.00124166e+02
52              	3.00127747e+02
53              	3.00131875e+02
54              	3.00136694e+02
55              	3.00140051e+02
56              	3.00143450e+02
57              	3.00147393e+02
58              	3.00151156e+02
59              	3.00155007e+02
60              	3.00158477e+02
61              	3.00162074e+02
62              	3.00165101e+02
63              	3.00169902e+02
64              	3.00173941e+02
65              	3.00179426e+02
66              	3.00182712e+02
67              	3.00186773e+02
68              	3.00189873e+02
69              	3.00193476e+02
70              	3.00196313e+02
71              	3.00198767e+02
72              	3.00202102e+02
73              	3.00204723e+02
74              	3.00208648e+02
75              	3.00211759e+02
76              	3.00215181e+02
77              	3.00218680e+02
78              	3.00223069e+02
79              	3.00227218e+02
80              	3.00230705e+02
81              	3.00233968e+02
82              	3.00237118e+02
83              	3.00240849e+02
84              	3.00244055e+02
85              	3.00246414e+02
86              	3.00249886e+02
87              	3.00252999e+02
88              	3.00255843e+02
89              	3.00258458e+02
90              	3.00260663e+02
91              	3.00264150e+02
92              	3.00267554e+02
93              	3.00270672e+02
94              	3.00273129e+02
95              	3.00275858e+02
96              	3.00278467e+02
97              	3.00280421e+02
98              	3.00282227e+02
99              	3.00284435e+02
100             	3.00286972e+02
101             	3.00289408e+02
102             	3.00292016e+02
103             	3.00294194e+02
104             	3.00296584e+02
105             	3.00299606e+02
106             	3.00302294e+02
107             	3.00304870e+02
108             	3.00306747e+02
109             	3.00309017e+02
110             	3.00311851e+02
111             	3.00313777e+02
112             	3.00316202e+02
113             	3.00318538e+02
114             	3.00320312e+02
115             	3.00322663e+02
116             	3.00324702e+02
117             	3.00326756e+02
118             	3.00328343e+02
119             	3.00330928e+02
120             	3.00333165e+02
121             	3.00335181e+02
122             	3.00336700e+02
123             	3.00338364e+02
124             	3.00340032e+02
125             	3.00342113e+02
126             	3.00343194e+02
127             	3.00344924e+02
128             	3.00346650e+02
129             	3.00347931e+02
130             	3.00349826e+02
131             	3.00351391e+02
132             	3.00352441e+02
133             	3.00353642e+02
134             	3.00355481e+02
135             	3.00356965e+02
136             	3.00358068e+02
137             	3.00358829e+02
138             	3.00360011e+02
139             	3.00361608e+02
140             	3.00362949e+02
141             	3.00364041e+02
142             	3.00365070e+02
143             	3.00366729e+02
144             	3.00367529e+02
145             	3.00368364e+02
146             	3.00368888e+02
147             	3.00369699e+02
148             	3.00370776e+02
149             	3.00371313e+02
150             	3.00373195e+02
151             	3.00374286e+02
152             	3.00374886e+02
153             	3.00375489e+02
154             	3.00376741e+02
155             	3.00377646e+02
156             	3.00378820e+02
157             	3.00378905e+02
158             	3.00379054e+02
159             	3.00379428e+02
160             	3.00379704e+02
161             	3.00380328e+02
162             	3.00380698e+02
163             	3.00381277e+02
164             	3.00381826e+02
165             	3.00382461e+02
166             	3.00382860e+02
167             	3.00383623e+02
168             	3.00384297e+02
169             	3.00384282e+02
170             	3.00384476e+02
171             	3.00384525e+02
172             	3.00384967e+02
173             	3.00385178e+02
174             	3.00385440e+02
175             	3.00386177e+02
176             	3.00386908e+02
177             	3.00387411e+02
178             	3.00387883e+02
179             	3.00388481e+02
180             	3.00388872e+02
181             	3.00389411e+02
182             	3.00390264e+02
183             	3.00391054e+02
184             	3.00390929e+02
185             	3.00391544e+02
186             	3.00391745e+02
187             	3.00391490e+02
188             	3.00391295e+02
189             	3.00391164e+02
190             	3.00391618e+02
191             	3.00391779e+02
192             	3.00391982e+02
193             	3.00392341e+02
194             	3.00393337e+02
195             	3.00393662e+02
196             	3.00394286e+02
197             	3.00394651e+02
198             	3.00394699e+02
199             	3.00394791e+02
200             	3.00394773e+02
201             	3.00394758e+02
202             	3.00394664e+02
203             	3.00395053e+02
204             	3.00395505e+02
205             	3.00395956e+02
206             	3.00396072e+02
207             	3.00396359e+02
208             	3.00396591e+02
209             	3.00397179e+02
210             	3.00397915e+02
211             	3.00398930e+02
212             	3.00398669e+02
213             	3.00399013e+02
214             	3.00398794e+02
215             	3.00398275e+02
216             	3.00397976e+02
217             	3.00398114e+02
218             	3.00398373e+02
219             	3.00398543e+02
220             	3.00398650e+02
221             	3.00399127e+02
222             	3.00399961e+02
223             	3.00400147e+02
224             	3.00400407e+02
225             	3.00400295e+02
226             	3.00400230e+02
227             	3.00399992e+02
228             	3.00399890e+02
229             	3.00399961e+02
230             	3.00399982e+02
231             	3.00399948e+02
232             	3.00399961e+02
233             	3.00400178e+02
234             	3.00399937e+02
235             	3.00399749e+02
236             	3.00399960e+02
237             	3.00399962e+02
238             	3.00399906e+02
239             	3.00400027e+02
240             	3.00400750e+02
241             	3.00400848e+02
242             	3.00400307e+02
243             	3.00400094e+02
244             	3.00399869e+02
245             	3.00399778e+02
246             	3.00399595e+02
247             	3.00399812e+02
248             	3.00399639e+02
249             	3.00399622e+02
250             	3.00399867e+02
251             	3.00400151e+02
252             	3.00400655e+02
253             	3.00401547e+02
254             	3.00401524e+02
255             	3.00401222e+02
256             	3.00401037e+02
257             	3.00400931e+02
258             	3.00400725e+02
259             	3.00400569e+02
260             	3.00400351e+02
261             	3.00400305e+02
262             	3.00400350e+02
263             	3.00400442e+02
264             	3.00400269e+02
265             	3.00400023e+02
266             	3.00399941e+02
267             	3.00399886e+02
268             	3.00399817e+02
269             	3.00399746e+02
270             	3.00399738e+02
271             	3.00399644e+02
272             	3.00399612e+02
273             	3.00399584e+02
274             	3.00399661e+02
275             	3.00399665e+02
276             	3.00399772e+02
277             	3.00399846e+02
278             	3.00399769e+02
279             	3.00399781e+02
280             	3.00399800e+02
281             	3.00399823e+02
282             	3.00399673e+02
283             	3.00399571e+02
284             	3.00399542e+02
285             	3.00399463e+02
286             	3.00399487e+02
287             	3.00399431e+02
288             	3.00399361e+02
289             	3.00399263e+02
290             	3.00399213e+02
291             	3.00399283e+02
292             	3.00399239e+02
293             	3.00399280e+02
294             	3.00399331e+02
295             	3.00399377e+02
296             	3.00399352e+02
297             	3.00399228e+02
298             	3.00399121e+02
299             	3.00399029e+02
300             	3.00398981e+02
301             	3.00398880e+02
302             	3.00398872e+02
303             	3.00398870e+02
304             	3.00398815e+02
305             	3.00398832e+02
306             	3.00398883e+02
307             	3.00398880e+02
308             	3.00398820e+02
309             	3.00398763e+02
310             	3.00398769e+02
311             	3.00398654e+02
312             	3.00398591e+02
313             	3.00398571e+02
314             	3.00398556e+02
315             	3.00398513e+02
316             	3.00398583e+02
317             	3.00398669e+02
318             	3.00398641e+02
319             	3.00398622e+02
320             	3.00398582e+02
321             	3.00398527e+02
322             	3.00398498e+02
323             	3.00398468e+02
324             	3.00398428e+02
325             	3.00398393e+02
326             	3.00398375e+02
327             	3.00398377e+02
328             	3.00398366e+02
329             	3.00398403e+02
330             	3.00398396e+02
331             	3.00398398e+02
332             	3.00398380e+02
333             	3.00398380e+02
334             	3.00398392e+02
335             	3.00398403e+02
336             	3.00398398e+02
337             	3.00398389e+02
338             	3.00398360e+02
339             	3.00398346e+02
340             	3.00398339e+02
341             	3.00398326e+02
342             	3.00398307e+02
343             	3.00398312e+02
344             	3.00398335e+02
345             	3.00398301e+02
346             	3.00398302e+02
347             	3.00398297e+02
348             	3.00398302e+02
349             	3.00398293e+02
350             	3.00398278e+02
351             	3.00398305e+02
352             	3.00398264e+02
353             	3.00398246e+02
354             	3.00398241e+02
355             	3.00398269e+02
356             	3.00398280e+02
357             	3.00398275e+02
358             	3.00398274e+02
359             	3.00398292e+02
360             	3.00398335e+02
361             	3.00398376e+02
362             	3.00398347e+02
363             	3.00398342e+02
364             	3.00398339e+02
365             	3.00398327e+02
366             	3.00398304e+02
367             	3.00398289e+02
368             	3.00398306e+02
369             	3.00398320e+02
370             	3.00398320e+02
371             	3.00398339e+02
372             	3.00398363e+02
373             	3.00398377e+02
374             	3.00398383e+02
375             	3.00398388e+02
376             	3.00398390e+02
377             	3.00398412e+02
378             	3.00398432e+02
379             	3.00398413e+02
380             	3.00398406e+02
381             	3.00398405e+02
382             	3.00398404e+02
383             	3.00398406e+02
384             	3.00398396e+02
385             	3.00398385e+02
386             	3.00398379e+02
387             	3.00398381e+02
388             	3.00398402e+02
389             	3.00398418e+02
390             	3.00398432e+02
391             	3.00398436e+02
392             	3.00398439e+02
393             	3.00398443e+02
394             	3.00398449e+02
395             	3.00398462e+02
396             	3.00398479e+02
397             	3.00398477e+02
398             	3.00398479e+02
399             	3.00398484e+02
400             	3.00398493e+02
401             	3.00398502e+02
402             	3.00398510e+02
403             	3.00398517e+02
404             	3.00398523e+02
405             	3.00398531e+02
406             	3.00398530e+02
407             	3.00398550e+02
408             	3.00398566e+02
409             	3.00398577e+02
410             	3.00398586e+02
411             	3.00398595e+02
412             	3.00398611e+02
413             	3.00398626e+02
414             	3.00398628e+02
415             	3.00398632e+02
416             	3.00398637e+02
417             	3.00398645e+02
418             	3.00398654e+02
419             	3.00398652e+02
420             	3.00398653e+02
421             	3.00398669e+02
422             	3.00398678e+02
423             	3.00398685e+02
424             	3.00398694e+02
425             	3.00398703e+02
426             	3.00398718e+02
427             	3.00398729e+02
428             	3.00398736e+02
429             	3.00398747e+02
430             	3.00398757e+02
431             	3.00398760e+02
432             	3.00398765e+02
433             	3.00398773e+02
434             	3.00398779e+02
435             	3.00398784e+02
436             	3.00398783e+02
437             	3.00398784e+02
438             	3.00398802e+02
439             	3.00398813e+02
440             	3.00398823e+02
441             	3.00398836e+02
442             	3.00398849e+02
443             	3.00398861e+02
444             	3.00398873e+02
445             	3.00398884e+02
446             	3.00398886e+02
447             	3.00398892e+02
448             	3.00398901e+02
449             	3.00398911e+02
450             	3.00398916e+02
451             	3.00398916e+02
452             	3.00398926e+02
453             	3.00398940e+02
454             	3.00398952e+02
455             	3.00398964e+02
456             	3.00398975e+02
457             	3.00398986e+02
458             	3.00399002e+02
459             	3.00399014e+02
460             	3.00399020e+02
461             	3.00399029e+02
462             	3.00399037e+02
463             	3.00399044e+02
464             	3.00399051e+02
465             	3.00399060e+02
466             	3.00399068e+02
467             	3.00399072e+02
468             	3.00399087e+02
469             	3.00399100e+02
470             	3.00399109e+02
471             	3.00399119e+02
472             	3.00399128e+02
473             	3.00399140e+02
474             	3.00399153e+02
475             	3.00399167e+02
476             	3.00399174e+02
477             	3.00399185e+02
478             	3.00399195e+02
479             	3.00399203e+02
480             	3.00399211e+02
481             	3.00399221e+02
482             	3.00399228e+02
483             	3.00399239e+02
484             	3.00399248e+02
485             	3.00399255e+02
486             	3.00399264e+02
487             	3.00399277e+02
488             	3.00399288e+02
489             	3.00399297e+02
490             	3.00399306e+02
491             	3.00399318e+02
492             	3.00399331e+02
493             	3.00399339e+02
494             	3.00399351e+02
495             	3.00399359e+02
496             	3.00399368e+02
497             	3.00399378e+02
498             	3.00399386e+02
499             	3.00399394e+02
500             	3.00399404e+02
501             	3.00399414e+02
502             	3.00399423e+02
503             	3.00399432e+02
504             	3.00399443e+02
505             	3.00399454e+02
506             	3.00399465e+02
507             	3.00399475e+02
508             	3.00399485e+02
509             	3.00399494e+02
510             	3.00399504e+02
511             	3.00399512e+02
512             	3.00399520e+02
513             	3.00399529e+02
514             	3.00399539e+02
515             	3.00399549e+02
516             	3.00399559e+02
517             	3.00399569e+02
518             	3.00399579e+02
519             	3.00399588e+02
520             	3.00399598e+02
521             	3.00399607e+02
522             	3.00399616e+02
523             	3.00399625e+02
524             	3.00399634e+02
525             	3.00399644e+02
526             	3.00399653e+02
527             	3.00399662e+02
528             	3.00399673e+02
529             	3.00399682e+02
530             	3.00399690e+02
531             	3.00399700e+02
532             	3.00399710e+02
533             	3.00399719e+02
534             	3.00399729e+02
535             	3.00399738e+02
536             	3.00399748e+02
537             	3.00399757e+02
538             	3.00399767e+02
539             	3.00399775e+02
540             	3.00399786e+02
541             	3.00399795e+02
542             	3.00399805e+02
543             	3.00399814e+02
544             	3.00399823e+02
545             	3.00399832e+02
546             	3.00399841e+02
547             	3.00399851e+02
548             	3.00399861e+02
549             	3.00399870e+02
550             	3.00399879e+02
551             	3.00399888e+02
552             	3.00399897e+02
553             	3.00399906e+02
554             	3.00399915e+02
555             	3.00399923e+02
556             	3.00399931e+02
557             	3.00399941e+02
558             	3.00399949e+02
559             	3.00399957e+02
560             	3.00399966e+02
561             	3.00399975e+02
562             	3.00399984e+02
563             	3.00399993e+02
564             	3.00400002e+02
565             	3.00400011e+02
566             	3.00400020e+02
567             	3.00400029e+02
568             	3.00400038e+02
569             	3.00400046e+02
570             	3.00400055e+02
571             	3.00400063e+02
572             	3.00400072e+02
573             	3.00400081e+02
574             	3.00400089e+02
575             	3.00400098e+02
576             	3.00400107e+02
577             	3.00400115e+02
578             	3.00400124e+02
579             	3.00400132e+02
580             	3.00400140e+02
581             	3.00400148e+02
582             	3.00400157e+02
583             	3.00400165e+02
584             	3.00400173e+02
585             	3.00400181e+02
586             	3.00400189e+02
587             	3.00400197e+02
588             	3.00400205e+02
589             	3.00400213e+02
590             	3.00400221e+02
591             	3.00400229e+02
592             	3.00400236e+02
593             	3.00400245e+02
594             	3.00400253e+02
595             	3.00400261e+02
596             	3.00400269e+02
597             	3.00400277e+02
598             	3.00400285e+02
599             	3.00400293e+02
600             	3.00400301e+02
601             	3.00400309e+02
602             	3.00400317e+02
603             	3.00400325e+02
604             	3.00400333e+02
605             	3.00400341e+02
606             	3.00400348e+02
607             	3.00400356e+02
608             	3.00400364e+02
609             	3.00400372e+02
610             	3.00400380e+02
611             	3.00400388e+02
612             	3.00400396e+02
613             	3.00400403e+02
614             	3.00400411e+02
615             	3.00400418e+02
616             	3.00400426e+02
617             	3.00400433e+02
618             	3.00400441e+02
619             	3.00400448e+02
620             	3.00400456e+02
621             	3.00400463e+02
622             	3.00400471e+02
623             	3.00400479e+02
624             	3.00400486e+02
625             	3.00400494e+02
626             	3.00400501e+02
627             	3.00400508e+02
628             	3.00400516e+02
629             	3.00400523e+02
630             	3.00400530e+02
631             	3.00400536e+02
632             	3.00400543e+02
633             	3.00400550e+02
634             	3.00400557e+02
635             	3.00400564e+02
636             	3.00400571e+02
637             	3.00400578e+02
638             	3.00400585e+02
639             	3.00400592e+02
640             	3.00400599e+02
641             	3.00400605e+02
642             	3.00400612e+02
643             	3.00400618e+02
644             	3.00400625e+02
645             	3.00400631e+02
646             	3.00400637e+02
647             	3.00400644e+02
648             	3.00400651e+02
649             	3.00400657e+02
650             	3.00400664e+02
651             	3.00400671e+02
652             	3.00400678e+02
653             	3.00400685e+02
654             	3.00400691e+02
655             	3.00400698e+02
656             	3.00400704e+02
657             	3.00400711e+02
658             	3.00400717e+02
659             	3.00400723e+02
660             	3.00400730e+02
661             	3.00400736e+02
662             	3.00400742e+02
663             	3.00400749e+02
664             	3.00400755e+02
665             	3.00400761e+02
666             	3.00400767e+02
667             	3.00400774e+02
668             	3.00400780e+02
669             	3.00400786e+02
670             	3.00400792e+02
671             	3.00400799e+02
672             	3.00400805e+02
673             	3.00400811e+02
674             	3.00400817e+02
675             	3.00400823e+02
676             	3.00400829e+02
677             	3.00400836e+02
678             	3.00400842e+02
679             	3.00400848e+02
680             	3.00400854e+02
681             	3.00400860e+02
682             	3.00400866e+02
683             	3.00400872e+02
684             	3.00400878e+02
685             	3.00400883e+02
686             	3.00400889e+02
687             	3.00400895e+02
688             	3.00400900e+02
689             	3.00400906e+02
690             	3.00400912e+02
691             	3.00400918e+02
692             	3.00400923e+02
693             	3.00400929e+02
694             	3.00400934e+02
695             	3.00400940e+02
696             	3.00400946e+02
697             	3.00400951e+02
698             	3.00400957e+02
699             	3.00400962e+02
700             	3.00400968e+02
701             	3.00400973e+02
702             	3.00400979e+02
703             	3.00400984e+02
704             	3.00400989e+02
705             	3.00400995e+02
706             	3.00401000e+02
707             	3.00401006e+02
708             	3.00401011e+02
709             	3.00401016e+02
710             	3.00401021e+02
711             	3.00401027e+02
712             	3.00401032e+02
713             	3.00401037e+02
714             	3.00401042e+02
715             	3.00401048e+02
716             	3.00401053e+02
717             	3.00401058e+02
718             	3.00401063e+02
719             	3.00401068e+02
720             	3.00401073e+02
721             	3.00401078e+02
722             	3.00401083e+02
723             	3.00401088e+02
724             	3.00401093e+02
725             	3.00401098e+02
726             	3.00401103e+02
727             	3.00401108e+02
728             	3.00401113e+02
729             	3.00401118e+02
730             	3.00401123e+02
731             	3.00401128e+02
732             	3.00401132e+02
733             	3.00401137e+02
734             	3.00401142e+02
735             	3.00401147e+02
736             	3.00401151e+02
737             	3.00401156e+02
738             	3.00401161e+02
739             	3.00401166e+02
740             	3.00401170e+02
741             	3.00401175e+02
742             	3.00401180e+02
743             	3.00401185e+02
744             	3.00401189e+02
745             	3.00401194e+02
746             	3.00401199e+02
747             	3.00401204e+02
748             	3.00401208e+02
749             	3.00401213e+02
750             	3.00401218e+02
751             	3.00401222e+02
752             	3.00401227e+02
753             	3.00401231e+02
754             	3.00401236e+02
755             	3.00401240e+02
756             	3.00401245e+02
757             	3.00401249e+02
758             	3.00401254e+02
759             	3.00401258e+02
760             	3.00401262e+02
761             	3.00401267e+02
762             	3.00401271e+02
763             	3.00401276e+02
764             	3.00401280e+02
765             	3.00401284e+02
766             	3.00401289e+02
767             	3.00401293e+02
768             	3.00401297e+02
769             	3.00401302e+02
770             	3.00401306e+02
771             	3.00401310e+02
772             	3.00401315e+02
773             	3.00401319e+02
774             	3.00401323e+02
775             	3.00401327e+02
776             	3.00401331e+02
777             	3.00401336e+02
778             	3.00401340e+02
779             	3.00401344e+02
780             	3.00401348e+02
781             	3.00401352e+02
782             	3.00401356e+02
783             	3.00401360e+02
784             	3.00401364e+02
785             	3.00401368e+02
786             	3.00401372e+02
787             	3.00401376e+02
788             	3.00401380e+02
789             	3.00401384e+02
790             	3.00401388e+02
791             	3.00401392e+02
792             	3.00401396e+02
793             	3.00401400e+02
794             	3.00401404e+02
795             	3.00401408e+02
796             	3.00401412e+02
797             	3.00401416e+02
798             	3.00401420e+02
799             	3.00401424e+02
800             	3.00401428e+02
801             	3.00401432e+02
802             	3.00401436e+02
803             	3.00401439e+02
804             	3.00401443e+02
805             	3.00401447e+02
806             	3.00401451e+02
807             	3.00401454e+02
808             	3.00401458e+02
809             	3.00401462e+02
810             	3.00401466e+02
811             	3.00401470e+02
812             	3.00401474e+02
813             	3.00401477e+02
814             	3.00401481e+02
815             	3.00401485e+02
816             	3.00401488e+02
817             	3.00401492e+02
818             	3.00401496e+02
819             	3.00401499e+02
820             	3.00401503e+02
821             	3.00401507e+02
822             	3.00401510e+02
823             	3.00401514e+02
824             	3.00401517e+02
825             	3.00401521e+02
826             	3.00401524e+02
827             	3.00401528e+02
828             	3.00401532e+02
829             	3.00401535e+02
830             	3.00401539e+02
831             	3.00401542e+02
832             	3.00401546e+02
833             	3.00401549e+02
834             	3.00401553e+02
835             	3.00401556e+02
836             	3.00401560e+02
837             	3.00401563e+02
838             	3.00401566e+02
839             	3.00401569e+02
840             	3.00401573e+02
841             	3.00401576e+02
842             	3.00401579e+02
843             	3.00401583e+02
844             	3.00401586e+02
845             	3.00401590e+02
846             	3.00401593e+02
847             	3.00401596e+02
848             	3.00401600e+02
849             	3.00401603e+02
850             	3.00401606e+02
851             	3.00401609e+02
852             	3.00401613e+02
853             	3.00401616e+02
854             	3.00401619e+02
855             	3.00401622e+02
856             	3.00401625e+02
857             	3.00401628e+02
858             	3.00401632e+02
859             	3.00401635e+02
860             	3.00401638e+02
861             	3.00401641e+02
862             	3.00401644e+02
863             	3.00401647e+02
864             	3.00401651e+02
865             	3.00401654e+02
866             	3.00401657e+02
867             	3.00401660e+02
868             	3.00401663e+02
869             	3.00401666e+02
870             	3.00401669e+02
871             	3.00401671e+02
872             	3.00401674e+02
873             	3.00401677e+02
874             	3.00401680e+02
875             	3.00401683e+02
876             	3.00401686e+02
877             	3.00401689e+02
878             	3.00401692e+02
879             	3.00401695e+02
880             	3.00401698e+02
881             	3.00401701e+02
882             	3.00401704e+02
883             	3.00401707e+02
884             	3.00401710e+02
885             	3.00401713e+02
886             	3.00401716e+02
887             	3.00401719e+02
888             	3.00401722e+02
889             	3.00401725e+02
890             	3.00401727e+02
891             	3.00401730e+02
892             	3.00401733e+02
893             	3.00401736e+02
894             	3.00401738e+02
895             	3.00401741e+02
896             	3.00401744e+02
897             	3.00401747e+02
898             	3.00401750e+02
899             	3.00401752e+02
900             	3.00401755e+02
901             	3.00401758e+02
902             	3.00401761e+02
903             	3.00401764e+02
904             	3.00401766e+02
905             	3.00401769e+02
906             	3.00401772e+02
907             	3.00401775e+02
908             	3.00401778e+02
909             	3.00401781e+02
910             	3.00401783e+02
911             	3.00401786e+02
912             	3.00401789e+02
913             	3.00401792e+02
914             	3.00401794e+02
915             	3.00401797e+02
916             	3.00401799e+02
917             	3.00401802e+02
918             	3.00401804e+02
919             	3.00401807e+02
920             	3.00401809e+02
921             	3.00401811e+02
922             	3.00401814e+02
923             	3.00401816e+02
924             	3.00401819e+02
925             	3.00401821e+02
926             	3.00401824e+02
927             	3.00401826e+02
928             	3.00401829e+02
929             	3.00401831e+02
930             	3.00401834e+02
931             	3.00401837e+02
932             	3.00401839e+02
933             	3.00401842e+02