# Region        : cellZone pcb
# Cells         : 642
# Volume        : 1.11864034e+00
# Time          	volAverage(T)
1               	3.00002953e+02
2               	3.00008757e+02
3               	3.00017167e+02
4               	3.00027979e+02
5               	3.00040479e+02
6               	3.00054885e+02
7               	3.00071248e+02
8               	3.00089351e+02
9               	3.00109099e+02
10              	3.00130481e+02
11              	3.00153395e+02
12              	3.00177683e+02
13              	3.00203702e+02
14              	3.00231123e+02
15              	3.00260107e+02
16              	3.00290039e+02
17              	3.00320610e+02
18              	3.00351540e+02
19              	3.00383327e+02
20              	3.00415779e+02
21              	3.00449008e+02
22              	3.00483118e+02
23              	3.00518025e+02
24              	3.00554156e+02
25              	3.00590930e+02
26              	3.00628671e+02
27              	3.00666763e+02
28              	3.00705130e+02
29              	3.00744351e+02
30              	3.00784233e+02
31              	3.00824298e+02
32              	3.00864684e+02
33              	3.00905542e+02
34              	3.00946737e+02
35              	3.00988025e+02
36              	3.01029794e+02
37              	3.01071940e+02
38              	3.01114511e+02
39              	3.01157445e+02
40              	3.01200773e+02
41              	3.01244637e+02
42              	3.01288456e+02
43              	3.01331603e+02
44              	3.01374652e+02
45              	3.01419056e+02
46              	3.01463637e+02
47              	3.01509068e+02
48              	3.01553892e+02
49              	3.01598091e+02
50              	3.01642300e+02
51              	3.01685966e+02
52              	3.01730521e+02
53              	3.01776025e+02
54              	3.01822045e+02
55              	3.01867967e+02
56              	3.01912918e+02
57              	3.01957647e+02
58              	3.02002329e+02
59              	3.02045581e+02
60              	3.02088823e+02
61              	3.02132400e+02
62              	3.02175944e+02
63              	3.02220494e+02
64              	3.02264114e+02
65              	3.02310199e+02
66              	3.02358055e+02
67              	3.02404137e+02
68              	3.02448663e+02
69              	3.02491973e+02
70              	3.02535455e+02
71              	3.02577513e+02
72              	3.02620038e+02
73              	3.02663017e+02
74              	3.02706007e+02
75              	3.02748596e+02
76              	3.02789971e+02
77              	3.02830585e+02
78              	3.02871049e+02
79              	3.02912520e+02
80              	3.02953041e+02
81              	3.02993381e+02
82              	3.03033043e+02
83              	3.03073076e+02
84              	3.03113093e+02
85              	3.03153988e+02
86              	3.03196605e+02
87              	3.03239661e+02
88              	3.03282126e+02
89              	3.03322259e+02
90              	3.03361021e+02
91              	3.03399863e+02
92              	3.03436597e+02
93              	3.03475439e+02
94              	3.03515671e+02
95              	3.03553542e+02
96              	3.03590490e+02
97              	3.03626931e+02
98              	3.03665525e+02
99              	3.03705348e+02
100             	3.03742219e+02
101             	3.03776393e+02
102             	3.03808406e+02
103             	3.03839686e+02
104             	3.03870635e+02
105             	3.03902001e+02
106             	3.03934073e+02
107             	3.03966352e+02
108             	3.04000237e+02
109             	3.04033102e+02
110             	3.04066450e+02
111             	3.04100974e+02
112             	3.04135143e+02
113             	3.04168063e+02
114             	3.04200828e+02
115             	3.04233389e+02
116             	3.04265134e+02
117             	3.04295764e+02
118             	3.04326504e+02
119             	3.04356449e+02
120             	3.04386313e+02
121             	3.04415466e+02
122             	3.04444647e+02
123             	3.04473634e+02
124             	3.04502311e+02
125             	3.04531472e+02
126             	3.04561331e+02
127             	3.04590212e+02
128             	3.04619140e+02
129             	3.04647425e+02
130             	3.04675497e+02
131             	3.04702272e+02
132             	3.04729191e+02
133             	3.04756179e+02
134             	3.04783354e+02
135             	3.04811525e+02
136             	3.04840499e+02
137             	3.04869251e+02
138             	3.04897013e+02
139             	3.04924271e+02
140             	3.04951278e+02
141             	3.04977969e+02
142             	3.05004359e+02
143             	3.05029853e+02
144             	3.05055405e+02
145             	3.05080147e+02
146             	3.05104967e+02
147             	3.05130705e+02
148             	3.05156777e+02
149             	3.05182690e+02
150             	3.05208121e+02
151             	3.05233261e+02
152             	3.05259174e+02
153             	3.05284654e+02
154             	3.05310262e+02
155             	3.05336479e+02
156             	3.05361693e+02
157             	3.05386460e+02
158             	3.05411337e+02
159             	3.05435508e+02
160             	3.05460589e+02
161             	3.05485767e+02
162             	3.05512211e+02
163             	3.05537096e+02
164             	3.05560788e+02
165             	3.05585844e+02
166             	3.05609321e+02
167             	3.05631163e+02
168             	3.05653699e+02
169             	3.05676222e+02
170             	3.05698262e+02
171             	3.05720738e+02
172             	3.05743350e+02
173             	3.05766314e+02
174             	3.05790047e+02
175             	3.05813730e+02
176             	3.05836925e+02
177             	3.05860009e+02
178             	3.05883191e+02
179             	3.05906539e+02
180             	3.05928437e+02
181             	3.05950299e+02
182             	3.05972074e+02
183             	3.05994198e+02
184             	3.06016489e+02
185             	3.06038559e+02
186             	3.06059998e+02
187             	3.06081195e+02
188             	3.06102619e+02
189             	3.06123100e+02
190             	3.06143710e+02
191             	3.06163842e+02
192             	3.06183655e+02
193             	3.06203700e+02
194             	3.06223894e+02
195             	3.06244410e+02
196             	3.06265222e+02
197             	3.06286198e+02
198             	3.06307077e+02
199             	3.06326663e+02
200             	3.06345680e+02
201             	3.06364529e+02
202             	3.06382979e+02
203             	3.06401490e+02
204             	3.06420137e+02
205             	3.06439128e+02
206             	3.06458698e+02
207             	3.06478568e+02
208             	3.06498353e+02
209             	3.06517650e+02
210             	3.06536640e+02
211             	3.06555448e+02
212             	3.06574206e+02
213             	3.06592842e+02
214             	3.06611246e+02
215             	3.06629488e+02
216             	3.06647836e+02
217             	3.06666401e+02
218             	3.06685293e+02
219             	3.06703905e+02
220             	3.06722594e+02
221             	3.06741099e+02
222             	3.06759400e+02
223             	3.06777665e+02
224             	3.06795892e+02
225             	3.06814371e+02
226             	3.06833247e+02
227             	3.06852193e+02
228             	3.06871110e+02
229             	3.06890022e+02
230             	3.06908811e+02
231             	3.06927436e+02
232             	3.06945550e+02
233             	3.06963290e+02
234             	3.06981031e+02
235             	3.06998624e+02
236             	3.07016103e+02
237             	3.07033841e+02
238             	3.07051263e+02
239             	3.07068696e+02
240             	3.07086195e+02
241             	3.07103917e+02
242             	3.07121921e+02
243             	3.07139877e+02
244             	3.07157643e+02
245             	3.07174400e+02
246             	3.07190831e+02
247             	3.07206996e+02
248             	3.07223008e+02
249             	3.07239098e+02
250             	3.07255061e+02
251             	3.07271202e+02
252             	3.07287650e+02
253             	3.07304011e+02
254             	3.07320075e+02
255             	3.07335862e+02
256             	3.07351509e+02
257             	3.07366656e+02
258             	3.07381728e+02
259             	3.07396896e+02
260             	3.07412137e+02
261             	3.07427458e+02
262             	3.07442672e+02
263             	3.07457679e+02
264             	3.07472757e+02
265             	3.07487847e+02
266             	3.07502566e+02
267             	3.07517043e+02
268             	3.07531380e+02
269             	3.07545533e+02
270             	3.07559582e+02
271             	3.07573311e+02
272             	3.07587057e+02
273             	3.07600964e+02
274             	3.07615047e+02
275             	3.07628855e+02
276             	3.07642444e+02
277             	3.07655915e+02
278             	3.07669342e+02
279             	3.07682726e+02
280             	3.07696183e+02
281             	3.07709642e+02
282             	3.07723084e+02
283             	3.07736738e+02
284             	3.07750284e+02
285             	3.07763646e+02
286             	3.07777026e+02
287             	3.07790340e+02
288             	3.07803748e+02
289             	3.07817102e+02
290             	3.07830002e+02
291             	3.07842952e+02
292             	3.07855639e+02
293             	3.07868262e+02
294             	3.07880621e+02
295             	3.07893352e+02
296             	3.07906055e+02
297             	3.07918649e+02
298             	3.07931281e+02
299             	3.07943811e+02
300             	3.07956270e+02
301             	3.07968966e+02
302             	3.07980997e+02
303             	3.07992321e+02
304             	3.08003450e+02
305             	3.08014538e+02
306             	3.08025541e+02
307             	3.08036490e+02
308             	3.08047415e+02
309             	3.08058427e+02
310             	3.08069565e+02
311             	3.08080726e+02
312             	3.08091473e+02
313             	3.08102021e+02
314             	3.08112700e+02
315             	3.08123339e+02
316             	3.08133871e+02
317             	3.08144215e+02
318             	3.08154287e+02
319             	3.08164476e+02
320             	3.08174524e+02
321             	3.08184445e+02
322             	3.08194208e+02
323             	3.08203901e+02
324             	3.08213488e+02
325             	3.08223028e+02
326             	3.08232617e+02
327             	3.08241826e+02
328             	3.08250925e+02
329             	3.08260051e+02
330             	3.08269300e+02
331             	3.08278600e+02
332             	3.08287826e+02
333             	3.08297191e+02
334             	3.08306790e+02
335             	3.08316417e+02
336             	3.08325388e+02
337             	3.08334604e+02
338             	3.08343893e+02
339             	3.08352947e+02
340             	3.08361907e+02
341             	3.08370965e+02
342             	3.08380531e+02
343             	3.08389517e+02
344             	3.08397995e+02
345             	3.08406650e+02
346             	3.08415555e+02
347             	3.08424439e+02
348             	3.08432836e+02
349             	3.08440717e+02
350             	3.08448608e+02
351             	3.08456327e+02
352             	3.08463968e+02
353             	3.08471690e+02
354             	3.08479504e+02
355             	3.08487555e+02
356             	3.08495562e+02
357             	3.08503477e+02
358             	3.08511231e+02
359             	3.08518930e+02
360             	3.08526479e+02
361             	3.08533740e+02
362             	3.08540812e+02
363             	3.08547775e+02
364             	3.08554763e+02
365             	3.08561816e+02
366             	3.08568914e+02
367             	3.08576033e+02
368             	3.08583442e+02
369             	3.08590830e+02
370             	3.08598103e+02
371             	3.08605174e+02
372             	3.08612112e+02
373             	3.08618910e+02
374             	3.08625639e+02
375             	3.08632263e+02
376             	3.08638898e+02
377             	3.08645518e+02
378             	3.08652159e+02
379             	3.08658752e+02
380             	3.08665258e+02
381             	3.08671641e+02
382             	3.08677922e+02
383             	3.08684166e+02
384             	3.08690334e+02
385             	3.08696348e+02
386             	3.08702280e+02
387             	3.08708187e+02
388             	3.08714069e+02
389             	3.08719895e+02
390             	3.08725611e+02
391             	3.08731328e+02
392             	3.08737134e+02
393             	3.08742961e+02
394             	3.08748826e+02
395             	3.08754777e+02
396             	3.08760741e+02
397             	3.08766577e+02
398             	3.08772237e+02
399             	3.08778174e+02
400             	3.08783593e+02
401             	3.08788644e+02
402             	3.08793659e+02
403             	3.08798731e+02
404             	3.08803902e+02
405             	3.08809219e+02
406             	3.08814657e+02
407             	3.08820101e+02
408             	3.08825539e+02
409             	3.08830978e+02
410             	3.08836250e+02
411             	3.08841367e+02
412             	3.08846466e+02
413             	3.08851283e+02
414             	3.08856134e+02
415             	3.08861196e+02
416             	3.08866292e+02
417             	3.08871474e+02
418             	3.08876702e+02
419             	3.08881856e+02
420             	3.08886859e+02
421             	3.08891748e+02
422             	3.08896409e+02
423             	3.08900965e+02
424             	3.08905414e+02
425             	3.08909768e+02
426             	3.08914030e+02
427             	3.08918195e+02
428             	3.08922317e+02
429             	3.08926694e+02
430             	3.08930750e+02
431             	3.08934578e+02
432             	3.08938423e+02
433             	3.08942298e+02
434             	3.08946205e+02
435             	3.08950159e+02
436             	3.08954117e+02
437             	3.08958068e+02
438             	3.08962006e+02
439             	3.08965919e+02
440             	3.08969821e+02
441             	3.08973680e+02
442             	3.08977415e+02
443             	3.08981197e+02
444             	3.08985149e+02
445             	3.08989137e+02
446             	3.08993022e+02
447             	3.08996841e+02
448             	3.09000629e+02
449             	3.09004479e+02
450             	3.09008235e+02
451             	3.09011944e+02
452             	3.09015647e+02
453             	3.09019362e+02
454             	3.09023038e+02
455             	3.09026621e+02
456             	3.09030159e+02
457             	3.09033742e+02
458             	3.09037422e+02
459             	3.09041196e+02
460             	3.09044727e+02
461             	3.09048394e+02
462             	3.09051639e+02
463             	3.09054414e+02
464             	3.09056960e+02
465             	3.09059409e+02
466             	3.09061795e+02
467             	3.09064230e+02
468             	3.09066776e+02
469             	3.09069432e+02
470             	3.09072257e+02
471             	3.09075335e+02
472             	3.09078733e+02
473             	3.09082256e+02
474             	3.09085710e+02
475             	3.09089118e+02
476             	3.09092198e+02
477             	3.09094880e+02
478             	3.09097641e+02
479             	3.09100467e+02
480             	3.09103243e+02
481             	3.09105999e+02
482             	3.09108736e+02
483             	3.09111491e+02
484             	3.09114285e+02
485             	3.09117097e+02
486             	3.09119787e+02
487             	3.09122328e+02
488             	3.09124616e+02
489             	3.09126748e+02
490             	3.09128921e+02
491             	3.09130999e+02
492             	3.09133100e+02
493             	3.09135343e+02
494             	3.09137670e+02
495             	3.09140019e+02
496             	3.09142264e+02
497             	3.09144450e+02
498             	3.09146726e+02
499             	3.09148909e+02
500             	3.09151066e+02
501             	3.09153231e+02
502             	3.09155426e+02
503             	3.09157695e+02
504             	3.09160093e+02
505             	3.09162569e+02
506             	3.09165020e+02
507             	3.09167340e+02
508             	3.09169635e+02
509             	3.09171890e+02
510             	3.09174177e+02
511             	3.09176470e+02
512             	3.09178809e+02
513             	3.09181193e+02
514             	3.09183425e+02
515             	3.09185871e+02
516             	3.09188193e+02
517             	3.09190342e+02
518             	3.09192354e+02
519             	3.09194449e+02
520             	3.09196575e+02
521             	3.09198675e+02
522             	3.09200766e+02
523             	3.09202803e+02
524             	3.09204793e+02
525             	3.09206652e+02
526             	3.09208443e+02
527             	3.09210258e+02
528             	3.09212153e+02
529             	3.09214091e+02
530             	3.09215991e+02
531             	3.09217853e+02
532             	3.09219597e+02
533             	3.09221212e+02
534             	3.09222769e+02
535             	3.09224319e+02
536             	3.09225898e+02
537             	3.09227510e+02
538             	3.09229147e+02
539             	3.09230805e+02
540             	3.09232451e+02
541             	3.09233883e+02
542             	3.09235341e+02
543             	3.09236846e+02
544             	3.09238342e+02
545             	3.09239748e+02
546             	3.09241100e+02
547             	3.09242394e+02
548             	3.09243703e+02
549             	3.09245055e+02
550             	3.09246430e+02
551             	3.09247809e+02
552             	3.09249194e+02
553             	3.09250599e+02
554             	3.09252041e+02
555             	3.09253428e+02
556             	3.09254815e+02
557             	3.09256237e+02
558             	3.09257680e+02
559             	3.09259090e+02
560             	3.09260472e+02
561             	3.09261816e+02
562             	3.09263248e+02
563             	3.09264727e+02
564             	3.09266242e+02
565             	3.09267858e+02
566             	3.09269587e+02
567             	3.09271254e+02
568             	3.09273027e+02
569             	3.09274521e+02
570             	3.09275597e+02
571             	3.09276536e+02
572             	3.09277448e+02
573             	3.09278385e+02
574             	3.09279412e+02
575             	3.09280614e+02
576             	3.09281914e+02
577             	3.09283210e+02
578             	3.09284535e+02
579             	3.09285912e+02
580             	3.09287302e+02
581             	3.09288687e+02
582             	3.09290101e+02
583             	3.09291556e+02
584             	3.09292907e+02
585             	3.09294169e+02
586             	3.09295403e+02
587             	3.09296620e+02
588             	3.09297801e+02
589             	3.09298938e+02
590             	3.09300049e+02
591             	3.09301122e+02
592             	3.09302079e+02
593             	3.09302947e+02
594             	3.09303782e+02
595             	3.09304560e+02
596             	3.09305361e+02
597             	3.09306136e+02
598             	3.09306906e+02
599             	3.09307746e+02
600             	3.09308499e+02
601             	3.09309331e+02
602             	3.09310238e+02
603             	3.09311190e+02
604             	3.09312130e+02
605             	3.09313002e+02
606             	3.09313840e+02
607             	3.09314629e+02
608             	3.09315320e+02
609             	3.09315976e+02
610             	3.09316653e+02
611             	3.09317352e+02
612             	3.09318074e+02
613             	3.09318816e+02
614             	3.09319585e+02
615             	3.09320510e+02
616             	3.09321546e+02
617             	3.09322957e+02
618             	3.09324219e+02
619             	3.09325480e+02
620             	3.09326728e+02
621             	3.09327622e+02
622             	3.09328172e+02
623             	3.09328574e+02
624             	3.09328879e+02
625             	3.09329148e+02
626             	3.09329458e+02
627             	3.09329913e+02
628             	3.09330647e+02
629             	3.09331526e+02
630             	3.09332490e+02
631             	3.09333374e+02
632             	3.09334290e+02
633             	3.09335197e+02
634             	3.09336027e+02
635             	3.09336606e+02
636             	3.09337086e+02
637             	3.09337644e+02
638             	3.09338328e+02
639             	3.09339085e+02
640             	3.09339928e+02
641             	3.09340825e+02
642             	3.09341749e+02
643             	3.09342640e+02
644             	3.09343404e+02
645             	3.09344038e+02
646             	3.09344615e+02
647             	3.09345231e+02
648             	3.09345884e+02
649             	3.09346518e+02
650             	3.09347090e+02
651             	3.09347538e+02
652             	3.09347977e+02
653             	3.09348425e+02
654             	3.09348791e+02
655             	3.09349219e+02
656             	3.09349710e+02
657             	3.09350224e+02
658             	3.09350721e+02
659             	3.09351187e+02
660             	3.09351627e+02
661             	3.09352058e+02
662             	3.09352497e+02
663             	3.09352927e+02
664             	3.09353380e+02
665             	3.09353882e+02
666             	3.09354430e+02
667             	3.09354998e+02
668             	3.09355570e+02
669             	3.09356199e+02
670             	3.09356898e+02
671             	3.09357661e+02
672             	3.09358456e+02
673             	3.09359310e+02
674             	3.09360160e+02
675             	3.09361042e+02
676             	3.09361862e+02
677             	3.09362616e+02
678             	3.09363217e+02
679             	3.09363805e+02
680             	3.09364260e+02
681             	3.09365067e+02
682             	3.09365493e+02
683             	3.09365562e+02
684             	3.09365633e+02
685             	3.09365734e+02
686             	3.09365900e+02
687             	3.09366156e+02
688             	3.09366517e+02
689             	3.09366929e+02
690             	3.09367394e+02
691             	3.09368037e+02
692             	3.09368731e+02
693             	3.09369459e+02
694             	3.09370150e+02
695             	3.09370789e+02
696             	3.09371364e+02
697             	3.09371632e+02
698             	3.09371989e+02
699             	3.09372476e+02
700             	3.09373031e+02
701             	3.09373596e+02
702             	3.09374115e+02
703             	3.09374537e+02
704             	3.09374911e+02
705             	3.09375207e+02
706             	3.09375308e+02
707             	3.09375291e+02
708             	3.09375218e+02
709             	3.09375122e+02
710             	3.09375056e+02
711             	3.09375051e+02
712             	3.09375123e+02
713             	3.09375459e+02
714             	3.09375923e+02
715             	3.09376390e+02
716             	3.09376472e+02
717             	3.09376360e+02
718             	3.09376255e+02
719             	3.09376186e+02
720             	3.09376158e+02
721             	3.09376179e+02
722             	3.09376302e+02
723             	3.09376798e+02
724             	3.09377427e+02
725             	3.09378203e+02
726             	3.09379004e+02
727             	3.09379918e+02
728             	3.09380883e+02
729             	3.09381858e+02
730             	3.09382790e+02
731             	3.09383507e+02
732             	3.09384070e+02
733             	3.09384431e+02
734             	3.09384759e+02
735             	3.09385199e+02
736             	3.09385709e+02
737             	3.09386300e+02
738             	3.09387039e+02
739             	3.09387989e+02
740             	3.09388713e+02
741             	3.09389134e+02
742             	3.09389581e+02
743             	3.09389907e+02
744             	3.09390025e+02
745             	3.09390094e+02
746             	3.09390182e+02
747             	3.09390393e+02
748             	3.09390363e+02
749             	3.09390371e+02
750             	3.09390147e+02
751             	3.09389879e+02
752             	3.09389583e+02
753             	3.09389303e+02
754             	3.09389101e+02
755             	3.09389003e+02
756             	3.09389050e+02
757             	3.09389227e+02
758             	3.09389477e+02
759             	3.09389659e+02
760             	3.09389697e+02
761             	3.09389547e+02
762             	3.09389343e+02
763             	3.09389154e+02
764             	3.09389036e+02
765             	3.09389010e+02
766             	3.09389060e+02
767             	3.09389151e+02
768             	3.09389217e+02
769             	3.09389356e+02
770             	3.09389556e+02
771             	3.09389804e+02
772             	3.09390072e+02
773             	3.09390322e+02
774             	3.09390474e+02
775             	3.09390561e+02
776             	3.09390631e+02
777             	3.09390652e+02
778             	3.09390655e+02
779             	3.09390734e+02
780             	3.09390938e+02
781             	3.09391271e+02
782             	3.09391782e+02
783             	3.09392387e+02
784             	3.09393011e+02
785             	3.09393654e+02
786             	3.09394107e+02
787             	3.09394371e+02
788             	3.09395065e+02
789             	3.09395315e+02
790             	3.09395105e+02
791             	3.09394766e+02
792             	3.09394466e+02
793             	3.09394231e+02
794             	3.09394255e+02
795             	3.09394397e+02
796             	3.09394623e+02
797             	3.09394979e+02
798             	3.09395367e+02
799             	3.09395647e+02
800             	3.09395931e+02
801             	3.09396297e+02
802             	3.09396549e+02
803             	3.09396808e+02
804             	3.09397147e+02
805             	3.09397502e+02
806             	3.09397861e+02
807             	3.09397927e+02
808             	3.09398075e+02
809             	3.09398411e+02
810             	3.09398789e+02
811             	3.09399191e+02
812             	3.09399507e+02
813             	3.09399691e+02
814             	3.09399685e+02
815             	3.09399572e+02
816             	3.09399379e+02
817             	3.09399008e+02
818             	3.09398568e+02
819             	3.09398378e+02
820             	3.09398613e+02
821             	3.09398476e+02
822             	3.09398164e+02
823             	3.09397909e+02
824             	3.09397740e+02
825             	3.09397613e+02
826             	3.09397532e+02
827             	3.09397471e+02
828             	3.09397394e+02
829             	3.09397706e+02
830             	3.09398171e+02
831             	3.09398709e+02
832             	3.09399276e+02
833             	3.09399952e+02
834             	3.09400699e+02
835             	3.09401400e+02
836             	3.09401904e+02
837             	3.09402388e+02
838             	3.09402853e+02
839             	3.09403241e+02
840             	3.09403572e+02
841             	3.09403898e+02
842             	3.09404214e+02
843             	3.09404473e+02
844             	3.09405115e+02
845             	3.09405661e+02
846             	3.09406130e+02
847             	3.09406951e+02
848             	3.09407585e+02
849             	3.09408109e+02
850             	3.09408396e+02
851             	3.09408337e+02
852             	3.09407828e+02
853             	3.09407607e+02
854             	3.09406966e+02
855             	3.09406177e+02
856             	3.09405925e+02
857             	3.09405512e+02
858             	3.09405073e+02
859             	3.09404853e+02
860             	3.09404764e+02
861             	3.09404568e+02
862             	3.09404534e+02
863             	3.09404669e+02
864             	3.09404692e+02
865             	3.09404650e+02
866             	3.09404823e+02
867             	3.09405192e+02
868             	3.09405636e+02
869             	3.09406020e+02
870             	3.09406285e+02
871             	3.09406441e+02
872             	3.09406383e+02
873             	3.09406209e+02
874             	3.09405986e+02
875             	3.09405741e+02
876             	3.09405527e+02
877             	3.09405315e+02
878             	3.09405124e+02
879             	3.09404946e+02
880             	3.09404670e+02
881             	3.09404353e+02
882             	3.09404324e+02
883             	3.09404092e+02
884             	3.09403693e+02
885             	3.09403264e+02
886             	3.09402854e+02
887             	3.09402513e+02
888             	3.09402250e+02
889             	3.09402096e+02
890             	3.09402098e+02
891             	3.09402279e+02
892             	3.09402582e+02
893             	3.09403184e+02
894             	3.09403717e+02
895             	3.09403943e+02
896             	3.09404370e+02
897             	3.09404928e+02
898             	3.09405476e+02
899             	3.09405943e+02
900             	3.09406376e+02
901             	3.09406713e+02
902             	3.09406940e+02
903             	3.09407168e+02
904             	3.09407676e+02
905             	3.09408063e+02
906             	3.09408482e+02
907             	3.09409042e+02
908             	3.09409572e+02
909             	3.09410068e+02
910             	3.09410027e+02
911             	3.09409577e+02
912             	3.09409003e+02
913             	3.09408393e+02
914             	3.09407783e+02
915             	3.09407185e+02
916             	3.09406704e+02
917             	3.09406374e+02
918             	3.09406367e+02
919             	3.09406358e+02
920             	3.09406371e+02
921             	3.09406349e+02
922             	3.09406416e+02
923             	3.09406534e+02
924             	3.09406458e+02
925             	3.09406091e+02
926             	3.09405523e+02
927             	3.09404915e+02
928             	3.09404388e+02
929             	3.09403985e+02
930             	3.09403722e+02
931             	3.09403607e+02
932             	3.09403671e+02
933             	3.09403859e+02