# Region        : cellZone fluid
# Cells         : 9198
# Volume        : 1.77042718e+01
# Time          	volAverage(T)
1               	2.99999803e+02
2               	2.99999815e+02
3               	3.00000265e+02
4               	3.00001058e+02
5               	3.00001707e+02
6               	3.00002359e+02
7               	3.00003129e+02
8               	3.00004101e+02
9               	3.00005589e+02
10              	3.00006920e+02
11              	3.00008259e+02
12              	3.00009926e+02
13              	3.00011473e+02
14              	3.00013252e+02
15              	3.00015215e+02
16              	3.00017545e+02
17              	3.00019345e+02
18              	3.00021312e+02
19              	3.00023622e+02
20              	3.00026078e+02
21              	3.00028828e+02
22              	3.00031201e+02
23              	3.00033608e+02
24              	3.00036194e+02
25              	3.00039018e+02
26              	3.00041878e+02
27              	3.00044468e+02
28              	3.00046157e+02
29              	3.00048484e+02
30              	3.00051139e+02
31              	3.00054165e+02
32              	3.00057881e+02
33              	3.00061027e+02
34              	3.00063673e+02
35              	3.00066632e+02
36              	3.00069761e+02
37              	3.00074241e+02
38              	3.00078182e+02
39              	3.00083337e+02
40              	3.00088411e+02
41              	3.00093523e+02
42              	3.00097655e+02
43              	3.00100342e+02
44              	3.00103559e+02
45              	3.00108933e+02
46              	3.00113448e+02
47              	3.00117291e+02
48              	3.00118736e+02
49              	3.00122978e+02
50              	3.00126974e+02
51              	3.00129939e+02
52              	3.00133803e+02
53              	3.00137475e+02
54              	3.00141980e+02
55              	3.00146385e+02
56              	3.00149824e+02
57              	3.00152450e+02
58              	3.00155322e+02
59              	3.00159659e+02
60              	3.00162523e+02
61              	3.00166350e+02
62              	3.00170406e+02
63              	3.00173764e+02
64              	3.00176642e+02
65              	3.00179939e+02
66              	3.00183285e+02
67              	3.00184758e+02
68              	3.00186384e+02
69              	3.00189695e+02
70              	3.00194106e+02
71              	3.00196733e+02
72              	3.00200256e+02
73              	3.00203350e+02
74              	3.00205762e+02
75              	3.00208277e+02
76              	3.00211350e+02
77              	3.00214709e+02
78              	3.00218204e+02
79              	3.00220202e+02
80              	3.00222531e+02
81              	3.00226623e+02
82              	3.00228959e+02
83              	3.00232425e+02
84              	3.00234776e+02
85              	3.00238825e+02
86              	3.00240427e+02
87              	3.00241286e+02
88              	3.00244266e+02
89              	3.00246652e+02
90              	3.00249172e+02
91              	3.00251322e+02
92              	3.00251539e+02
93              	3.00254940e+02
94              	3.00258708e+02
95              	3.00260474e+02
96              	3.00262974e+02
97              	3.00265572e+02
98              	3.00268034e+02
99              	3.00271228e+02
100             	3.00272289e+02
101             	3.00274453e+02
102             	3.00278818e+02
103             	3.00282935e+02
104             	3.00287453e+02
105             	3.00289151e+02
106             	3.00291207e+02
107             	3.00294439e+02
108             	3.00297547e+02
109             	3.00297818e+02
110             	3.00299200e+02
111             	3.00301098e+02
112             	3.00303817e+02
113             	3.00308282e+02
114             	3.00310737e+02
115             	3.00313829e+02
116             	3.00317236e+02
117             	3.00318408e+02
118             	3.00321152e+02
119             	3.00322748e+02
120             	3.00325558e+02
121             	3.00326458e+02
122             	3.00326535e+02
123             	3.00326927e+02
124             	3.00327711e+02
125             	3.00328313e+02
126             	3.00328979e+02
127             	3.00330679e+02
128             	3.00331841e+02
129             	3.00333013e+02
130             	3.00334403e+02
131             	3.00336091e+02
132             	3.00337867e+02
133             	3.00340196e+02
134             	3.00341417e+02
135             	3.00342473e+02
136             	3.00344520e+02
137             	3.00347559e+02
138             	3.00348795e+02
139             	3.00349036e+02
140             	3.00350333e+02
141             	3.00351181e+02
142             	3.00352110e+02
143             	3.00351902e+02
144             	3.00351606e+02
145             	3.00351728e+02
146             	3.00353475e+02
147             	3.00354451e+02
148             	3.00355270e+02
149             	3.00356711e+02
150             	3.00358288e+02
151             	3.00359820e+02
152             	3.00361712e+02
153             	3.00363253e+02
154             	3.00364213e+02
155             	3.00364921e+02
156             	3.00365259e+02
157             	3.00366362e+02
158             	3.00368469e+02
159             	3.00370047e+02
160             	3.00370285e+02
161             	3.00373698e+02
162             	3.00375741e+02
163             	3.00375503e+02
164             	3.00375405e+02
165             	3.00374780e+02
166             	3.00374767e+02
167             	3.00374275e+02
168             	3.00374336e+02
169             	3.00375792e+02
170             	3.00377595e+02
171             	3.00379175e+02
172             	3.00381697e+02
173             	3.00382104e+02
174             	3.00383295e+02
175             	3.00385115e+02
176             	3.00386167e+02
177             	3.00386904e+02
178             	3.00386297e+02
179             	3.00385497e+02
180             	3.00384628e+02
181             	3.00383356e+02
182             	3.00382750e+02
183             	3.00382900e+02
184             	3.00383854e+02
185             	3.00384515e+02
186             	3.00385596e+02
187             	3.00386707e+02
188             	3.00387314e+02
189             	3.00387828e+02
190             	3.00388415e+02
191             	3.00388988e+02
192             	3.00389396e+02
193             	3.00390320e+02
194             	3.00391206e+02
195             	3.00392681e+02
196             	3.00394038e+02
197             	3.00394240e+02
198             	3.00395753e+02
199             	3.00396954e+02
200             	3.00398000e+02
201             	3.00398396e+02
202             	3.00398325e+02
203             	3.00398555e+02
204             	3.00398275e+02
205             	3.00398726e+02
206             	3.00399448e+02
207             	3.00400849e+02
208             	3.00400850e+02
209             	3.00401220e+02
210             	3.00401834e+02
211             	3.00402987e+02
212             	3.00404119e+02
213             	3.00405604e+02
214             	3.00406069e+02
215             	3.00406569e+02
216             	3.00406982e+02
217             	3.00407117e+02
218             	3.00408299e+02
219             	3.00409155e+02
220             	3.00409407e+02
221             	3.00409663e+02
222             	3.00409991e+02
223             	3.00411296e+02
224             	3.00412457e+02
225             	3.00412473e+02
226             	3.00412978e+02
227             	3.00413630e+02
228             	3.00414367e+02
229             	3.00415074e+02
230             	3.00415831e+02
231             	3.00416737e+02
232             	3.00418079e+02
233             	3.00419314e+02
234             	3.00420013e+02
235             	3.00420572e+02
236             	3.00421144e+02
237             	3.00421535e+02
238             	3.00421764e+02
239             	3.00422213e+02
240             	3.00422563e+02
241             	3.00422836e+02
242             	3.00423218e+02
243             	3.00423777e+02
244             	3.00424598e+02
245             	3.00425431e+02
246             	3.00426224e+02
247             	3.00426868e+02
248             	3.00428393e+02
249             	3.00428507e+02
250             	3.00428655e+02
251             	3.00428914e+02
252             	3.00429593e+02
253             	3.00430298e+02
254             	3.00431114e+02
255             	3.00432243e+02
256             	3.00433149e+02
257             	3.00434378e+02
258             	3.00435195e+02
259             	3.00435403e+02
260             	3.00435918e+02
261             	3.00436326e+02
262             	3.00436667e+02
263             	3.00437201e+02
264             	3.00437582e+02
265             	3.00438077e+02
266             	3.00438698e+02
267             	3.00439253e+02
268             	3.00440090e+02
269             	3.00440449e+02
270             	3.00441216e+02
271             	3.00441106e+02
272             	3.00441302e+02
273             	3.00441614e+02
274             	3.00442032e+02
275             	3.00442342e+02
276             	3.00442819e+02
277             	3.00443527e+02
278             	3.00444592e+02
279             	3.00445137e+02
280             	3.00445363e+02
281             	3.00445405e+02
282             	3.00445790e+02
283             	3.00445982e+02
284             	3.00446012e+02
285             	3.00446085e+02
286             	3.00446318e+02
287             	3.00446379e+02
288             	3.00447835e+02
289             	3.00447702e+02
290             	3.00447995e+02
291             	3.00448481e+02
292             	3.00448965e+02
293             	3.00449518e+02
294             	3.00450007e+02
295             	3.00450522e+02
296             	3.00450852e+02
297             	3.00451286e+02
298             	3.00451619e+02
299             	3.00451632e+02
300             	3.00451864e+02
301             	3.00452638e+02
302             	3.00453195e+02
303             	3.00453487e+02
304             	3.00454243e+02
305             	3.00454079e+02
306             	3.00454504e+02
307             	3.00454057e+02
308             	3.00453966e+02
309             	3.00454015e+02
310             	3.00454172e+02
311             	3.00454479e+02
312             	3.00454958e+02
313             	3.00455132e+02
314             	3.00455493e+02
315             	3.00456108e+02
316             	3.00456533e+02
317             	3.00457010e+02
318             	3.00457549e+02
319             	3.00457989e+02
320             	3.00458242e+02
321             	3.00458628e+02
322             	3.00459015e+02
323             	3.00459310e+02
324             	3.00459439e+02
325             	3.00459851e+02
326             	3.00460065e+02
327             	3.00460252e+02
328             	3.00460430e+02
329             	3.00460618e+02
330             	3.00460988e+02
331             	3.00461120e+02
332             	3.00461699e+02
333             	3.00461759e+02
334             	3.00461770e+02
335             	3.00461900e+02
336             	3.00462043e+02
337             	3.00462266e+02
338             	3.00462487e+02
339             	3.00462856e+02
340             	3.00462565e+02
341             	3.00462962e+02
342             	3.00463644e+02
343             	3.00464187e+02
344             	3.00464650e+02
345             	3.00464930e+02
346             	3.00465080e+02
347             	3.00465243e+02
348             	3.00466207e+02
349             	3.00465712e+02
350             	3.00465363e+02
351             	3.00465066e+02
352             	3.00464902e+02
353             	3.00464869e+02
354             	3.00464972e+02
355             	3.00465341e+02
356             	3.00465925e+02
357             	3.00466783e+02
358             	3.00467486e+02
359             	3.00468037e+02
360             	3.00468405e+02
361             	3.00468665e+02
362             	3.00468189e+02
363             	3.00468323e+02
364             	3.00468563e+02
365             	3.00468703e+02
366             	3.00468788e+02
367             	3.00468920e+02
368             	3.00469383e+02
369             	3.00469983e+02
370             	3.00470353e+02
371             	3.00470091e+02
372             	3.00470018e+02
373             	3.00470042e+02
374             	3.00470100e+02
375             	3.00470123e+02
376             	3.00470125e+02
377             	3.00470317e+02
378             	3.00470404e+02
379             	3.00470509e+02
380             	3.00470615e+02
381             	3.00470696e+02
382             	3.00470766e+02
383             	3.00470635e+02
384             	3.00471030e+02
385             	3.00471332e+02
386             	3.00471380e+02
387             	3.00471528e+02
388             	3.00471696e+02
389             	3.00471898e+02
390             	3.00472099e+02
391             	3.00472339e+02
392             	3.00472633e+02
393             	3.00472804e+02
394             	3.00472886e+02
395             	3.00472875e+02
396             	3.00472786e+02
397             	3.00472657e+02
398             	3.00472396e+02
399             	3.00472585e+02
400             	3.00472423e+02
401             	3.00472408e+02
402             	3.00472466e+02
403             	3.00472606e+02
404             	3.00472783e+02
405             	3.00473058e+02
406             	3.00473346e+02
407             	3.00473617e+02
408             	3.00473898e+02
409             	3.00474181e+02
410             	3.00474479e+02
411             	3.00474777e+02
412             	3.00475052e+02
413             	3.00475263e+02
414             	3.00475452e+02
415             	3.00475656e+02
416             	3.00475844e+02
417             	3.00475974e+02
418             	3.00476184e+02
419             	3.00476358e+02
420             	3.00476460e+02
421             	3.00476535e+02
422             	3.00476734e+02
423             	3.00476682e+02
424             	3.00476895e+02
425             	3.00477115e+02
426             	3.00477290e+02
427             	3.00477421e+02
428             	3.00477415e+02
429             	3.00477357e+02
430             	3.00477258e+02
431             	3.00477313e+02
432             	3.00477090e+02
433             	3.00477446e+02
434             	3.00476992e+02
435             	3.00476723e+02
436             	3.00476551e+02
437             	3.00476459e+02
438             	3.00476446e+02
439             	3.00476557e+02
440             	3.00476808e+02
441             	3.00476379e+02
442             	3.00476852e+02
443             	3.00477178e+02
444             	3.00477347e+02
445             	3.00477375e+02
446             	3.00477251e+02
447             	3.00477183e+02
448             	3.00477226e+02
449             	3.00477086e+02
450             	3.00476945e+02
451             	3.00476860e+02
452             	3.00476791e+02
453             	3.00476944e+02
454             	3.00476945e+02
455             	3.00477039e+02
456             	3.00477118e+02
457             	3.00477136e+02
458             	3.00477168e+02
459             	3.00477163e+02
460             	3.00477119e+02
461             	3.00477034e+02
462             	3.00476930e+02
463             	3.00476905e+02
464             	3.00476922e+02
465             	3.00476943e+02
466             	3.00477080e+02
467             	3.00477159e+02
468             	3.00477332e+02
469             	3.00477462e+02
470             	3.00477553e+02
471             	3.00477779e+02
472             	3.00478012e+02
473             	3.00478246e+02
474             	3.00478375e+02
475             	3.00478433e+02
476             	3.00478674e+02
477             	3.00478744e+02
478             	3.00478785e+02
479             	3.00478783e+02
480             	3.00478827e+02
481             	3.00478790e+02
482             	3.00478780e+02
483             	3.00478790e+02
484             	3.00478804e+02
485             	3.00478881e+02
486             	3.00478937e+02
487             	3.00479047e+02
488             	3.00479130e+02
489             	3.00479206e+02
490             	3.00479252e+02
491             	3.00479260e+02
492             	3.00479257e+02
493             	3.00479280e+02
494             	3.00479192e+02
495             	3.00479074e+02
496             	3.00478961e+02
497             	3.00478932e+02
498             	3.00478939e+02
499             	3.00478935e+02
500             	3.00478883e+02
501             	3.00478918e+02
502             	3.00479009e+02
503             	3.00479148e+02
504             	3.00479320e+02
505             	3.00479472e+02
506             	3.00479284e+02
507             	3.00479541e+02
508             	3.00479665e+02
509             	3.00479661e+02
510             	3.00479624e+02
511             	3.00479635e+02
512             	3.00479661e+02
513             	3.00479670e+02
514             	3.00479690e+02
515             	3.00479681e+02
516             	3.00479678e+02
517             	3.00479626e+02
518             	3.00479624e+02
519             	3.00479627e+02
520             	3.00479655e+02
521             	3.00479725e+02
522             	3.00479997e+02
523             	3.00479861e+02
524             	3.00479816e+02
525             	3.00479844e+02
526             	3.00479910e+02
527             	3.00479994e+02
528             	3.00480082e+02
529             	3.00480023e+02
530             	3.00480177e+02
531             	3.00480308e+02
532             	3.00480232e+02
533             	3.00480403e+02
534             	3.00480536e+02
535             	3.00480633e+02
536             	3.00480704e+02
537             	3.00480753e+02
538             	3.00480777e+02
539             	3.00480800e+02
540             	3.00480760e+02
541             	3.00480749e+02
542             	3.00480724e+02
543             	3.00480728e+02
544             	3.00480727e+02
545             	3.00480757e+02
546             	3.00480761e+02
547             	3.00480772e+02
548             	3.00480724e+02
549             	3.00480864e+02
550             	3.00480708e+02
551             	3.00480590e+02
552             	3.00480523e+02
553             	3.00480511e+02
554             	3.00480572e+02
555             	3.00480634e+02
556             	3.00480684e+02
557             	3.00480743e+02
558             	3.00480826e+02
559             	3.00480910e+02
560             	3.00480955e+02
561             	3.00481007e+02
562             	3.00481119e+02
563             	3.00481227e+02
564             	3.00481318e+02
565             	3.00481451e+02
566             	3.00481547e+02
567             	3.00481636e+02
568             	3.00481774e+02
569             	3.00481844e+02
570             	3.00481873e+02
571             	3.00481865e+02
572             	3.00481875e+02
573             	3.00481884e+02
574             	3.00481874e+02
575             	3.00481819e+02
576             	3.00481757e+02
577             	3.00481719e+02
578             	3.00481690e+02
579             	3.00481655e+02
580             	3.00481688e+02
581             	3.00481627e+02
582             	3.00481594e+02
583             	3.00481614e+02
584             	3.00481613e+02
585             	3.00481552e+02
586             	3.00481529e+02
587             	3.00481537e+02
588             	3.00481552e+02
589             	3.00481552e+02
590             	3.00481567e+02
591             	3.00481596e+02
592             	3.00481633e+02
593             	3.00481682e+02
594             	3.00481728e+02
595             	3.00481760e+02
596             	3.00481798e+02
597             	3.00481866e+02
598             	3.00481905e+02
599             	3.00481920e+02
600             	3.00481911e+02
601             	3.00481926e+02
602             	3.00481946e+02
603             	3.00481987e+02
604             	3.00482047e+02
605             	3.00482072e+02
606             	3.00482169e+02
607             	3.00482253e+02
608             	3.00482330e+02
609             	3.00482387e+02
610             	3.00482428e+02
611             	3.00482505e+02
612             	3.00482552e+02
613             	3.00482580e+02
614             	3.00482587e+02
615             	3.00482598e+02
616             	3.00482599e+02
617             	3.00482588e+02
618             	3.00482575e+02
619             	3.00482572e+02
620             	3.00482565e+02
621             	3.00482547e+02
622             	3.00482517e+02
623             	3.00482549e+02
624             	3.00482533e+02
625             	3.00482454e+02
626             	3.00482405e+02
627             	3.00482366e+02
628             	3.00482331e+02
629             	3.00482312e+02
630             	3.00482320e+02
631             	3.00482352e+02
632             	3.00482398e+02
633             	3.00482438e+02
634             	3.00482447e+02
635             	3.00482446e+02
636             	3.00482420e+02
637             	3.00482462e+02
638             	3.00482453e+02
639             	3.00482452e+02
640             	3.00482488e+02
641             	3.00482483e+02
642             	3.00482526e+02
643             	3.00482560e+02
644             	3.00482587e+02
645             	3.00482651e+02
646             	3.00482693e+02
647             	3.00482729e+02
648             	3.00482799e+02
649             	3.00482857e+02
650             	3.00482908e+02
651             	3.00482937e+02
652             	3.00482992e+02
653             	3.00483030e+02
654             	3.00483037e+02
655             	3.00483060e+02
656             	3.00483066e+02
657             	3.00483059e+02
658             	3.00483039e+02
659             	3.00483023e+02
660             	3.00482998e+02
661             	3.00482983e+02
662             	3.00482980e+02
663             	3.00482984e+02
664             	3.00482959e+02
665             	3.00482961e+02
666             	3.00482969e+02
667             	3.00482975e+02
668             	3.00482971e+02
669             	3.00482960e+02
670             	3.00482950e+02
671             	3.00482922e+02
672             	3.00482903e+02
673             	3.00482889e+02
674             	3.00482879e+02
675             	3.00482872e+02
676             	3.00482858e+02
677             	3.00482842e+02
678             	3.00482873e+02
679             	3.00482883e+02
680             	3.00482880e+02
681             	3.00482873e+02
682             	3.00482867e+02
683             	3.00482869e+02
684             	3.00482875e+02
685             	3.00482884e+02
686             	3.00482893e+02
687             	3.00482900e+02
688             	3.00482912e+02
689             	3.00482935e+02
690             	3.00482952e+02
691             	3.00482965e+02
692             	3.00482987e+02
693             	3.00482995e+02
694             	3.00483008e+02
695             	3.00483038e+02
696             	3.00483072e+02
697             	3.00483102e+02
698             	3.00483126e+02
699             	3.00483133e+02
700             	3.00483126e+02
701             	3.00483158e+02
702             	3.00483169e+02
703             	3.00483168e+02
704             	3.00483162e+02
705             	3.00483156e+02
706             	3.00483146e+02
707             	3.00483143e+02
708             	3.00483104e+02
709             	3.00483078e+02
710             	3.00483049e+02
711             	3.00483018e+02
712             	3.00482987e+02
713             	3.00482978e+02
714             	3.00482990e+02
715             	3.00483003e+02
716             	3.00483022e+02
717             	3.00482995e+02
718             	3.00482976e+02
719             	3.00482965e+02
720             	3.00482938e+02
721             	3.00482932e+02
722             	3.00482921e+02
723             	3.00482909e+02
724             	3.00482906e+02
725             	3.00482916e+02
726             	3.00482918e+02
727             	3.00482969e+02
728             	3.00482975e+02
729             	3.00483029e+02
730             	3.00483064e+02
731             	3.00483094e+02
732             	3.00483117e+02
733             	3.00483139e+02
734             	3.00483158e+02
735             	3.00483165e+02
736             	3.00483168e+02
737             	3.00483177e+02
738             	3.00483171e+02
739             	3.00483161e+02
740             	3.00483151e+02
741             	3.00483142e+02
742             	3.00483133e+02
743             	3.00483129e+02
744             	3.00483131e+02
745             	3.00483160e+02
746             	3.00483163e+02
747             	3.00483150e+02
748             	3.00483147e+02
749             	3.00483157e+02
750             	3.00483172e+02
751             	3.00483191e+02
752             	3.00483208e+02
753             	3.00483225e+02
754             	3.00483242e+02
755             	3.00483260e+02
756             	3.00483268e+02
757             	3.00483265e+02
758             	3.00483258e+02
759             	3.00483267e+02
760             	3.00483250e+02
761             	3.00483231e+02
762             	3.00483212e+02
763             	3.00483197e+02
764             	3.00483184e+02
765             	3.00483174e+02
766             	3.00483168e+02
767             	3.00483164e+02
768             	3.00483161e+02
769             	3.00483163e+02
770             	3.00483161e+02
771             	3.00483159e+02
772             	3.00483156e+02
773             	3.00483154e+02
774             	3.00483153e+02
775             	3.00483152e+02
776             	3.00483169e+02
777             	3.00483134e+02
778             	3.00483105e+02
779             	3.00483084e+02
780             	3.00483066e+02
781             	3.00483051e+02
782             	3.00483050e+02
783             	3.00483056e+02
784             	3.00483068e+02
785             	3.00483075e+02
786             	3.00483084e+02
787             	3.00483103e+02
788             	3.00483126e+02
789             	3.00483147e+02
790             	3.00483140e+02
791             	3.00483135e+02
792             	3.00483166e+02
793             	3.00483183e+02
794             	3.00483195e+02
795             	3.00483198e+02
796             	3.00483196e+02
797             	3.00483196e+02
798             	3.00483191e+02
799             	3.00483185e+02
800             	3.00483175e+02
801             	3.00483161e+02
802             	3.00483155e+02
803             	3.00483156e+02
804             	3.00483153e+02
805             	3.00483158e+02
806             	3.00483155e+02
807             	3.00483151e+02
808             	3.00483152e+02
809             	3.00483145e+02
810             	3.00483150e+02
811             	3.00483140e+02
812             	3.00483133e+02
813             	3.00483129e+02
814             	3.00483121e+02
815             	3.00483131e+02
816             	3.00483142e+02
817             	3.00483150e+02
818             	3.00483159e+02
819             	3.00483168e+02
820             	3.00483164e+02
821             	3.00483166e+02
822             	3.00483168e+02
823             	3.00483168e+02
824             	3.00483165e+02
825             	3.00483167e+02
826             	3.00483168e+02
827             	3.00483168e+02
828             	3.00483162e+02
829             	3.00483184e+02
830             	3.00483203e+02
831             	3.00483213e+02
832             	3.00483226e+02
833             	3.00483240e+02
834             	3.00483242e+02
835             	3.00483243e+02
836             	3.00483244e+02
837             	3.00483239e+02
838             	3.00483230e+02
839             	3.00483230e+02
840             	3.00483227e+02
841             	3.00483229e+02
842             	3.00483231e+02
843             	3.00483230e+02
844             	3.00483230e+02
845             	3.00483230e+02
846             	3.00483229e+02
847             	3.00483229e+02
848             	3.00483227e+02
849             	3.00483221e+02
850             	3.00483215e+02
851             	3.00483216e+02
852             	3.00483222e+02
853             	3.00483217e+02
854             	3.00483214e+02
855             	3.00483211e+02
856             	3.00483206e+02
857             	3.00483201e+02
858             	3.00483194e+02
859             	3.00483187e+02
860             	3.00483181e+02
861             	3.00483181e+02
862             	3.00483181e+02
863             	3.00483187e+02
864             	3.00483194e+02
865             	3.00483202e+02
866             	3.00483207e+02
867             	3.00483215e+02
868             	3.00483217e+02
869             	3.00483222e+02
870             	3.00483223e+02
871             	3.00483219e+02
872             	3.00483218e+02
873             	3.00483217e+02
874             	3.00483217e+02
875             	3.00483218e+02
876             	3.00483219e+02
877             	3.00483220e+02
878             	3.00483225e+02
879             	3.00483229e+02
880             	3.00483233e+02
881             	3.00483241e+02
882             	3.00483246e+02
883             	3.00483252e+02
884             	3.00483257e+02
885             	3.00483256e+02
886             	3.00483253e+02
887             	3.00483259e+02
888             	3.00483260e+02
889             	3.00483254e+02
890             	3.00483254e+02
891             	3.00483258e+02
892             	3.00483259e+02
893             	3.00483265e+02
894             	3.00483271e+02
895             	3.00483277e+02
896             	3.00483283e+02
897             	3.00483282e+02
898             	3.00483277e+02
899             	3.00483272e+02
900             	3.00483270e+02
901             	3.00483274e+02
902             	3.00483277e+02
903             	3.00483272e+02
904             	3.00483278e+02
905             	3.00483286e+02
906             	3.00483292e+02
907             	3.00483297e+02
908             	3.00483300e+02
909             	3.00483298e+02
910             	3.00483290e+02
911             	3.00483288e+02
912             	3.00483286e+02
913             	3.00483287e+02
914             	3.00483288e+02
915             	3.00483285e+02
916             	3.00483285e+02
917             	3.00483284e+02
918             	3.00483281e+02
919             	3.00483285e+02
920             	3.00483274e+02
921             	3.00483264e+02
922             	3.00483255e+02
923             	3.00483265e+02
924             	3.00483253e+02
925             	3.00483249e+02
926             	3.00483249e+02
927             	3.00483250e+02
928             	3.00483251e+02
929             	3.00483253e+02
930             	3.00483257e+02
931             	3.00483256e+02
932             	3.00483269e+02
933             	3.00483263e+02