# Region        : cellZone component_0
# Cells         : 131
# Volume        : 2.49891130e-01
# Time          	volAverage(T)
1               	3.02042117e+02
2               	3.04051310e+02
3               	3.05895190e+02
4               	3.07618711e+02
5               	3.09268186e+02
6               	3.10863193e+02
7               	3.12414187e+02
8               	3.13929598e+02
9               	3.15426090e+02
10              	3.16905678e+02
11              	3.18360390e+02
12              	3.19778174e+02
13              	3.21156706e+02
14              	3.22502893e+02
15              	3.23806433e+02
16              	3.25073413e+02
17              	3.26299141e+02
18              	3.27526138e+02
19              	3.28754963e+02
20              	3.29978764e+02
21              	3.31199573e+02
22              	3.32413072e+02
23              	3.33612128e+02
24              	3.34800593e+02
25              	3.35954566e+02
26              	3.37072075e+02
27              	3.38155477e+02
28              	3.39203787e+02
29              	3.40214305e+02
30              	3.41190890e+02
31              	3.42150294e+02
32              	3.43110439e+02
33              	3.44063726e+02
34              	3.44996512e+02
35              	3.45923890e+02
36              	3.46784684e+02
37              	3.47600653e+02
38              	3.48431138e+02
39              	3.49253983e+02
40              	3.50058107e+02
41              	3.50830738e+02
42              	3.51571213e+02
43              	3.52294000e+02
44              	3.53048836e+02
45              	3.53771903e+02
46              	3.54417144e+02
47              	3.54994880e+02
48              	3.55596463e+02
49              	3.56171244e+02
50              	3.56772156e+02
51              	3.57361609e+02
52              	3.57942078e+02
53              	3.58514911e+02
54              	3.59079254e+02
55              	3.59649403e+02
56              	3.60228611e+02
57              	3.60812165e+02
58              	3.61388108e+02
59              	3.61953020e+02
60              	3.62509938e+02
61              	3.63062668e+02
62              	3.63608285e+02
63              	3.64145036e+02
64              	3.64673935e+02
65              	3.65201224e+02
66              	3.65729269e+02
67              	3.66259878e+02
68              	3.66789297e+02
69              	3.67283175e+02
70              	3.67758987e+02
71              	3.68210034e+02
72              	3.68643865e+02
73              	3.69065862e+02
74              	3.69479856e+02
75              	3.69893660e+02
76              	3.70312024e+02
77              	3.70733334e+02
78              	3.71154465e+02
79              	3.71585142e+02
80              	3.72015779e+02
81              	3.72431930e+02
82              	3.72835478e+02
83              	3.73220312e+02
84              	3.73589804e+02
85              	3.73946334e+02
86              	3.74287857e+02
87              	3.74623477e+02
88              	3.74953159e+02
89              	3.75277945e+02
90              	3.75602473e+02
91              	3.75921155e+02
92              	3.76240889e+02
93              	3.76553944e+02
94              	3.76864291e+02
95              	3.77171572e+02
96              	3.77473235e+02
97              	3.77765036e+02
98              	3.78049725e+02
99              	3.78325420e+02
100             	3.78591268e+02
101             	3.78849188e+02
102             	3.79104910e+02
103             	3.79357322e+02
104             	3.79608123e+02
105             	3.79858372e+02
106             	3.80107822e+02
107             	3.80349260e+02
108             	3.80596645e+02
109             	3.80844476e+02
110             	3.81093927e+02
111             	3.81339257e+02
112             	3.81577251e+02
113             	3.81807846e+02
114             	3.82028709e+02
115             	3.82240549e+02
116             	3.82446338e+02
117             	3.82649834e+02
118             	3.82850795e+02
119             	3.83051314e+02
120             	3.83251826e+02
121             	3.83447981e+02
122             	3.83643591e+02
123             	3.83840788e+02
124             	3.84036566e+02
125             	3.84232856e+02
126             	3.84423543e+02
127             	3.84608394e+02
128             	3.84805740e+02
129             	3.85002429e+02
130             	3.85195917e+02
131             	3.85387633e+02
132             	3.85572308e+02
133             	3.85743277e+02
134             	3.85906676e+02
135             	3.86062989e+02
136             	3.86215910e+02
137             	3.86361046e+02
138             	3.86499725e+02
139             	3.86633852e+02
140             	3.86773771e+02
141             	3.86921547e+02
142             	3.87073042e+02
143             	3.87232632e+02
144             	3.87399291e+02
145             	3.87568161e+02
146             	3.87734676e+02
147             	3.87892253e+02
148             	3.88036744e+02
149             	3.88167771e+02
150             	3.88286705e+02
151             	3.88397971e+02
152             	3.88509639e+02
153             	3.88620916e+02
154             	3.88739105e+02
155             	3.88861149e+02
156             	3.88981138e+02
157             	3.89107129e+02
158             	3.89236948e+02
159             	3.89367843e+02
160             	3.89489362e+02
161             	3.89602765e+02
162             	3.89708608e+02
163             	3.89807380e+02
164             	3.89900427e+02
165             	3.89992339e+02
166             	3.90086964e+02
167             	3.90181475e+02
168             	3.90281010e+02
169             	3.90386158e+02
170             	3.90494841e+02
171             	3.90605155e+02
172             	3.90715119e+02
173             	3.90825407e+02
174             	3.90932194e+02
175             	3.91034951e+02
176             	3.91133655e+02
177             	3.91229484e+02
178             	3.91322115e+02
179             	3.91412973e+02
180             	3.91499839e+02
181             	3.91582717e+02
182             	3.91663898e+02
183             	3.91746525e+02
184             	3.91827233e+02
185             	3.91906945e+02
186             	3.91987428e+02
187             	3.92070084e+02
188             	3.92157079e+02
189             	3.92245306e+02
190             	3.92331023e+02
191             	3.92409759e+02
192             	3.92483518e+02
193             	3.92552250e+02
194             	3.92616029e+02
195             	3.92677296e+02
196             	3.92742267e+02
197             	3.92807794e+02
198             	3.92877079e+02
199             	3.92950846e+02
200             	3.93027015e+02
201             	3.93101393e+02
202             	3.93173201e+02
203             	3.93243017e+02
204             	3.93311101e+02
205             	3.93377484e+02
206             	3.93438197e+02
207             	3.93493985e+02
208             	3.93545587e+02
209             	3.93593928e+02
210             	3.93639439e+02
211             	3.93683022e+02
212             	3.93726904e+02
213             	3.93775582e+02
214             	3.93830085e+02
215             	3.93886452e+02
216             	3.93945004e+02
217             	3.94005290e+02
218             	3.94062982e+02
219             	3.94117886e+02
220             	3.94168753e+02
221             	3.94215593e+02
222             	3.94259760e+02
223             	3.94304076e+02
224             	3.94346662e+02
225             	3.94387740e+02
226             	3.94429175e+02
227             	3.94472731e+02
228             	3.94519176e+02
229             	3.94568513e+02
230             	3.94619750e+02
231             	3.94671702e+02
232             	3.94721592e+02
233             	3.94767715e+02
234             	3.94810025e+02
235             	3.94849344e+02
236             	3.94885540e+02
237             	3.94918320e+02
238             	3.94949263e+02
239             	3.94979682e+02
240             	3.95010533e+02
241             	3.95043011e+02
242             	3.95077773e+02
243             	3.95114068e+02
244             	3.95152574e+02
245             	3.95192642e+02
246             	3.95233096e+02
247             	3.95272539e+02
248             	3.95310784e+02
249             	3.95347525e+02
250             	3.95380082e+02
251             	3.95410549e+02
252             	3.95438820e+02
253             	3.95465789e+02
254             	3.95492775e+02
255             	3.95519930e+02
256             	3.95547969e+02
257             	3.95576624e+02
258             	3.95606625e+02
259             	3.95637958e+02
260             	3.95670320e+02
261             	3.95703348e+02
262             	3.95735911e+02
263             	3.95766113e+02
264             	3.95793811e+02
265             	3.95820002e+02
266             	3.95844680e+02
267             	3.95868017e+02
268             	3.95890258e+02
269             	3.95912119e+02
270             	3.95934117e+02
271             	3.95956672e+02
272             	3.95979791e+02
273             	3.96003256e+02
274             	3.96026516e+02
275             	3.96049282e+02
276             	3.96072107e+02
277             	3.96095010e+02
278             	3.96116986e+02
279             	3.96138413e+02
280             	3.96159482e+02
281             	3.96180372e+02
282             	3.96200511e+02
283             	3.96219963e+02
284             	3.96239299e+02
285             	3.96258489e+02
286             	3.96277581e+02
287             	3.96296689e+02
288             	3.96315905e+02
289             	3.96335178e+02
290             	3.96354504e+02
291             	3.96373726e+02
292             	3.96392569e+02
293             	3.96410856e+02
294             	3.96428767e+02
295             	3.96445951e+02
296             	3.96462553e+02
297             	3.96478630e+02
298             	3.96494182e+02
299             	3.96509373e+02
300             	3.96524616e+02
301             	3.96539966e+02
302             	3.96555643e+02
303             	3.96571928e+02
304             	3.96588671e+02
305             	3.96605295e+02
306             	3.96621163e+02
307             	3.96636773e+02
308             	3.96651696e+02
309             	3.96665802e+02
310             	3.96679305e+02
311             	3.96692592e+02
312             	3.96705648e+02
313             	3.96718970e+02
314             	3.96732311e+02
315             	3.96745871e+02
316             	3.96759356e+02
317             	3.96772773e+02
318             	3.96786084e+02
319             	3.96799280e+02
320             	3.96812032e+02
321             	3.96824021e+02
322             	3.96835620e+02
323             	3.96846697e+02
324             	3.96857188e+02
325             	3.96867383e+02
326             	3.96877618e+02
327             	3.96888251e+02
328             	3.96899027e+02
329             	3.96910128e+02
330             	3.96921248e+02
331             	3.96932219e+02
332             	3.96942955e+02
333             	3.96953371e+02
334             	3.96963528e+02
335             	3.96973541e+02
336             	3.96983458e+02
337             	3.96993058e+02
338             	3.97002287e+02
339             	3.97011448e+02
340             	3.97020395e+02
341             	3.97029146e+02
342             	3.97037819e+02
343             	3.97046551e+02
344             	3.97055303e+02
345             	3.97064102e+02
346             	3.97072953e+02
347             	3.97081918e+02
348             	3.97090882e+02
349             	3.97099759e+02
350             	3.97108583e+02
351             	3.97117044e+02
352             	3.97125126e+02
353             	3.97133018e+02
354             	3.97140619e+02
355             	3.97148022e+02
356             	3.97155304e+02
357             	3.97162495e+02
358             	3.97169682e+02
359             	3.97176945e+02
360             	3.97184320e+02
361             	3.97191715e+02
362             	3.97198972e+02
363             	3.97206157e+02
364             	3.97213194e+02
365             	3.97220080e+02
366             	3.97226894e+02
367             	3.97233574e+02
368             	3.97240017e+02
369             	3.97246297e+02
370             	3.97252415e+02
371             	3.97258503e+02
372             	3.97264507e+02
373             	3.97270387e+02
374             	3.97276179e+02
375             	3.97281928e+02
376             	3.97287610e+02
377             	3.97293257e+02
378             	3.97298879e+02
379             	3.97304443e+02
380             	3.97309892e+02
381             	3.97315368e+02
382             	3.97320878e+02
383             	3.97326363e+02
384             	3.97331829e+02
385             	3.97337219e+02
386             	3.97342585e+02
387             	3.97347805e+02
388             	3.97352848e+02
389             	3.97357775e+02
390             	3.97362555e+02
391             	3.97367279e+02
392             	3.97371944e+02
393             	3.97376540e+02
394             	3.97381106e+02
395             	3.97385660e+02
396             	3.97390163e+02
397             	3.97394660e+02
398             	3.97399108e+02
399             	3.97403487e+02
400             	3.97407712e+02
401             	3.97411820e+02
402             	3.97415873e+02
403             	3.97419900e+02
404             	3.97423828e+02
405             	3.97427715e+02
406             	3.97431581e+02
407             	3.97435443e+02
408             	3.97439282e+02
409             	3.97443124e+02
410             	3.97446975e+02
411             	3.97450824e+02
412             	3.97454619e+02
413             	3.97458419e+02
414             	3.97462179e+02
415             	3.97465889e+02
416             	3.97469531e+02
417             	3.97473109e+02
418             	3.97476613e+02
419             	3.97480051e+02
420             	3.97483410e+02
421             	3.97486680e+02
422             	3.97489879e+02
423             	3.97493007e+02
424             	3.97496063e+02
425             	3.97499076e+02
426             	3.97502040e+02
427             	3.97504984e+02
428             	3.97507905e+02
429             	3.97510822e+02
430             	3.97513720e+02
431             	3.97516552e+02
432             	3.97519361e+02
433             	3.97522144e+02
434             	3.97524891e+02
435             	3.97527596e+02
436             	3.97530250e+02
437             	3.97532862e+02
438             	3.97535427e+02
439             	3.97537931e+02
440             	3.97540395e+02
441             	3.97542870e+02
442             	3.97545371e+02
443             	3.97547897e+02
444             	3.97550453e+02
445             	3.97552979e+02
446             	3.97555356e+02
447             	3.97557685e+02
448             	3.97559924e+02
449             	3.97562101e+02
450             	3.97564221e+02
451             	3.97566339e+02
452             	3.97568444e+02
453             	3.97570566e+02
454             	3.97572716e+02
455             	3.97574879e+02
456             	3.97577024e+02
457             	3.97579144e+02
458             	3.97581227e+02
459             	3.97583287e+02
460             	3.97585316e+02
461             	3.97587295e+02
462             	3.97589220e+02
463             	3.97591116e+02
464             	3.97592988e+02
465             	3.97594827e+02
466             	3.97596636e+02
467             	3.97598442e+02
468             	3.97600233e+02
469             	3.97602008e+02
470             	3.97603770e+02
471             	3.97605529e+02
472             	3.97607283e+02
473             	3.97609026e+02
474             	3.97610757e+02
475             	3.97612470e+02
476             	3.97614114e+02
477             	3.97615729e+02
478             	3.97617318e+02
479             	3.97618868e+02
480             	3.97620378e+02
481             	3.97621850e+02
482             	3.97623302e+02
483             	3.97624752e+02
484             	3.97626185e+02
485             	3.97627619e+02
486             	3.97629066e+02
487             	3.97630521e+02
488             	3.97631982e+02
489             	3.97633402e+02
490             	3.97634789e+02
491             	3.97636152e+02
492             	3.97637479e+02
493             	3.97638773e+02
494             	3.97640037e+02
495             	3.97641274e+02
496             	3.97642523e+02
497             	3.97643759e+02
498             	3.97644996e+02
499             	3.97646238e+02
500             	3.97647480e+02
501             	3.97648719e+02
502             	3.97649954e+02
503             	3.97651180e+02
504             	3.97652383e+02
505             	3.97653519e+02
506             	3.97654629e+02
507             	3.97655702e+02
508             	3.97656738e+02
509             	3.97657752e+02
510             	3.97658766e+02
511             	3.97659772e+02
512             	3.97660772e+02
513             	3.97661774e+02
514             	3.97662793e+02
515             	3.97663818e+02
516             	3.97664847e+02
517             	3.97665875e+02
518             	3.97666864e+02
519             	3.97667834e+02
520             	3.97668779e+02
521             	3.97669697e+02
522             	3.97670590e+02
523             	3.97671464e+02
524             	3.97672322e+02
525             	3.97673213e+02
526             	3.97674103e+02
527             	3.97675006e+02
528             	3.97675926e+02
529             	3.97676851e+02
530             	3.97677767e+02
531             	3.97678666e+02
532             	3.97679545e+02
533             	3.97680402e+02
534             	3.97681228e+02
535             	3.97682027e+02
536             	3.97682801e+02
537             	3.97683552e+02
538             	3.97684286e+02
539             	3.97685003e+02
540             	3.97685723e+02
541             	3.97686437e+02
542             	3.97687148e+02
543             	3.97687861e+02
544             	3.97688572e+02
545             	3.97689278e+02
546             	3.97689978e+02
547             	3.97690671e+02
548             	3.97691354e+02
549             	3.97692009e+02
550             	3.97692654e+02
551             	3.97693278e+02
552             	3.97693889e+02
553             	3.97694493e+02
554             	3.97695088e+02
555             	3.97695676e+02
556             	3.97696260e+02
557             	3.97696837e+02
558             	3.97697426e+02
559             	3.97698011e+02
560             	3.97698601e+02
561             	3.97699189e+02
562             	3.97699774e+02
563             	3.97700354e+02
564             	3.97700928e+02
565             	3.97701495e+02
566             	3.97702049e+02
567             	3.97702595e+02
568             	3.97703136e+02
569             	3.97703672e+02
570             	3.97704197e+02
571             	3.97704718e+02
572             	3.97705234e+02
573             	3.97705745e+02
574             	3.97706254e+02
575             	3.97706757e+02
576             	3.97707254e+02
577             	3.97707745e+02
578             	3.97708230e+02
579             	3.97708706e+02
580             	3.97709172e+02
581             	3.97709627e+02
582             	3.97710071e+02
583             	3.97710505e+02
584             	3.97710927e+02
585             	3.97711341e+02
586             	3.97711745e+02
587             	3.97712141e+02
588             	3.97712536e+02
589             	3.97712927e+02
590             	3.97713314e+02
591             	3.97713698e+02
592             	3.97714080e+02
593             	3.97714460e+02
594             	3.97714837e+02
595             	3.97715196e+02
596             	3.97715550e+02
597             	3.97715896e+02
598             	3.97716235e+02
599             	3.97716567e+02
600             	3.97716895e+02
601             	3.97717220e+02
602             	3.97717541e+02
603             	3.97717860e+02
604             	3.97718175e+02
605             	3.97718488e+02
606             	3.97718798e+02
607             	3.97719035e+02
608             	3.97719267e+02
609             	3.97719567e+02
610             	3.97719795e+02
611             	3.97720088e+02
612             	3.97720310e+02
613             	3.97720530e+02
614             	3.97720749e+02
615             	3.97720968e+02
616             	3.97721185e+02
617             	3.97721404e+02
618             	3.97721623e+02
619             	3.97721843e+02
620             	3.97722064e+02
621             	3.97722286e+02
622             	3.97722508e+02
623             	3.97722730e+02
624             	3.97722953e+02
625             	3.97723170e+02
626             	3.97723385e+02
627             	3.97723597e+02
628             	3.97723804e+02
629             	3.97724006e+02
630             	3.97724209e+02
631             	3.97724409e+02
632             	3.97724606e+02
633             	3.97724803e+02
634             	3.97724997e+02
635             	3.97725190e+02
636             	3.97725380e+02
637             	3.97725570e+02
638             	3.97725754e+02
639             	3.97725938e+02
640             	3.97726119e+02
641             	3.97726301e+02
642             	3.97726481e+02
643             	3.97726659e+02
644             	3.97726836e+02
645             	3.97727009e+02
646             	3.97727181e+02
647             	3.97727350e+02
648             	3.97727515e+02
649             	3.97727686e+02
650             	3.97727854e+02
651             	3.97728024e+02
652             	3.97728194e+02
653             	3.97728365e+02
654             	3.97728534e+02
655             	3.97728702e+02
656             	3.97728867e+02
657             	3.97729027e+02
658             	3.97729184e+02
659             	3.97729339e+02
660             	3.97729491e+02
661             	3.97729641e+02
662             	3.97729782e+02
663             	3.97729922e+02
664             	3.97730057e+02
665             	3.97730193e+02
666             	3.97730329e+02
667             	3.97730464e+02
668             	3.97730599e+02
669             	3.97730734e+02
670             	3.97730869e+02
671             	3.97731003e+02
672             	3.97731134e+02
673             	3.97731262e+02
674             	3.97731388e+02
675             	3.97731512e+02
676             	3.97731633e+02
677             	3.97731752e+02
678             	3.97731868e+02
679             	3.97731984e+02
680             	3.97732099e+02
681             	3.97732212e+02
682             	3.97732325e+02
683             	3.97732438e+02
684             	3.97732550e+02
685             	3.97732663e+02
686             	3.97732776e+02
687             	3.97732889e+02
688             	3.97733001e+02
689             	3.97733114e+02
690             	3.97733226e+02
691             	3.97733337e+02
692             	3.97733446e+02
693             	3.97733555e+02
694             	3.97733663e+02
695             	3.97733770e+02
696             	3.97733874e+02
697             	3.97733977e+02
698             	3.97734081e+02
699             	3.97734184e+02
700             	3.97734283e+02
701             	3.97734383e+02
702             	3.97734480e+02
703             	3.97734577e+02
704             	3.97734671e+02
705             	3.97734766e+02
706             	3.97734859e+02
707             	3.97734954e+02
708             	3.97735048e+02
709             	3.97735142e+02
710             	3.97735236e+02
711             	3.97735327e+02
712             	3.97735416e+02
713             	3.97735508e+02
714             	3.97735598e+02
715             	3.97735687e+02
716             	3.97735779e+02
717             	3.97735869e+02
718             	3.97735958e+02
719             	3.97736046e+02
720             	3.97736133e+02
721             	3.97736219e+02
722             	3.97736303e+02
723             	3.97736385e+02
724             	3.97736465e+02
725             	3.97736543e+02
726             	3.97736620e+02
727             	3.97736696e+02
728             	3.97736769e+02
729             	3.97736840e+02
730             	3.97736910e+02
731             	3.97736980e+02
732             	3.97737052e+02
733             	3.97737125e+02
734             	3.97737199e+02
735             	3.97737275e+02
736             	3.97737345e+02
737             	3.97737415e+02
738             	3.97737483e+02
739             	3.97737548e+02
740             	3.97737610e+02
741             	3.97737670e+02
742             	3.97737730e+02
743             	3.97737789e+02
744             	3.97737848e+02
745             	3.97737906e+02
746             	3.97737964e+02
747             	3.97738022e+02
748             	3.97738081e+02
749             	3.97738144e+02
750             	3.97738208e+02
751             	3.97738275e+02
752             	3.97738344e+02
753             	3.97738414e+02
754             	3.97738486e+02
755             	3.97738553e+02
756             	3.97738620e+02
757             	3.97738686e+02
758             	3.97738750e+02
759             	3.97738814e+02
760             	3.97738877e+02
761             	3.97738940e+02
762             	3.97739001e+02
763             	3.97739067e+02
764             	3.97739132e+02
765             	3.97739194e+02
766             	3.97739257e+02
767             	3.97739316e+02
768             	3.97739375e+02
769             	3.97739433e+02
770             	3.97739485e+02
771             	3.97739531e+02
772             	3.97739575e+02
773             	3.97739615e+02
774             	3.97739652e+02
775             	3.97739688e+02
776             	3.97739722e+02
777             	3.97739756e+02
778             	3.97739791e+02
779             	3.97739825e+02
780             	3.97739859e+02
781             	3.97739894e+02
782             	3.97739928e+02
783             	3.97739963e+02
784             	3.97739999e+02
785             	3.97740036e+02
786             	3.97740073e+02
787             	3.97740113e+02
788             	3.97740152e+02
789             	3.97740194e+02
790             	3.97740236e+02
791             	3.97740280e+02
792             	3.97740325e+02
793             	3.97740370e+02
794             	3.97740416e+02
795             	3.97740461e+02
796             	3.97740505e+02
797             	3.97740548e+02
798             	3.97740590e+02
799             	3.97740629e+02
800             	3.97740665e+02
801             	3.97740698e+02
802             	3.97740730e+02
803             	3.97740759e+02
804             	3.97740789e+02
805             	3.97740820e+02
806             	3.97740851e+02
807             	3.97740882e+02
808             	3.97740912e+02
809             	3.97740943e+02
810             	3.97740974e+02
811             	3.97741005e+02
812             	3.97741036e+02
813             	3.97741067e+02
814             	3.97741098e+02
815             	3.97741130e+02
816             	3.97741163e+02
817             	3.97741197e+02
818             	3.97741232e+02
819             	3.97741268e+02
820             	3.97741304e+02
821             	3.97741341e+02
822             	3.97741379e+02
823             	3.97741417e+02
824             	3.97741455e+02
825             	3.97741494e+02
826             	3.97741532e+02
827             	3.97741571e+02
828             	3.97741609e+02
829             	3.97741647e+02
830             	3.97741684e+02
831             	3.97741720e+02
832             	3.97741755e+02
833             	3.97741789e+02
834             	3.97741823e+02
835             	3.97741855e+02
836             	3.97741886e+02
837             	3.97741917e+02
838             	3.97741946e+02
839             	3.97741975e+02
840             	3.97742002e+02
841             	3.97742030e+02
842             	3.97742056e+02
843             	3.97742082e+02
844             	3.97742108e+02
845             	3.97742133e+02
846             	3.97742158e+02
847             	3.97742182e+02
848             	3.97742206e+02
849             	3.97742230e+02
850             	3.97742253e+02
851             	3.97742276e+02
852             	3.97742297e+02
853             	3.97742318e+02
854             	3.97742338e+02
855             	3.97742357e+02
856             	3.97742375e+02
857             	3.97742392e+02
858             	3.97742408e+02
859             	3.97742423e+02
860             	3.97742437e+02
861             	3.97742451e+02
862             	3.97742463e+02
863             	3.97742476e+02
864             	3.97742487e+02
865             	3.97742498e+02
866             	3.97742509e+02
867             	3.97742521e+02
868             	3.97742533e+02
869             	3.97742545e+02
870             	3.97742557e+02
871             	3.97742569e+02
872             	3.97742582e+02
873             	3.97742595e+02
874             	3.97742608e+02
875             	3.97742622e+02
876             	3.97742635e+02
877             	3.97742649e+02
878             	3.97742663e+02
879             	3.97742677e+02
880             	3.97742691e+02
881             	3.97742706e+02
882             	3.97742722e+02
883             	3.97742738e+02
884             	3.97742754e+02
885             	3.97742770e+02
886             	3.97742786e+02
887             	3.97742802e+02
888             	3.97742818e+02
889             	3.97742833e+02
890             	3.97742848e+02
891             	3.97742862e+02
892             	3.97742875e+02
893             	3.97742888e+02
894             	3.97742901e+02
895             	3.97742914e+02
896             	3.97742926e+02
897             	3.97742938e+02
898             	3.97742949e+02
899             	3.97742961e+02
900             	3.97742972e+02
901             	3.97742983e+02
902             	3.97742994e+02
903             	3.97743005e+02
904             	3.97743016e+02
905             	3.97743026e+02
906             	3.97743036e+02
907             	3.97743045e+02
908             	3.97743055e+02
909             	3.97743065e+02
910             	3.97743075e+02
911             	3.97743084e+02
912             	3.97743094e+02
913             	3.97743104e+02
914             	3.97743114e+02
915             	3.97743124e+02
916             	3.97743134e+02
917             	3.97743144e+02
918             	3.97743154e+02
919             	3.97743164e+02
920             	3.97743174e+02
921             	3.97743185e+02
922             	3.97743195e+02
923             	3.97743206e+02
924             	3.97743217e+02
925             	3.97743228e+02
926             	3.97743239e+02
927             	3.97743250e+02
928             	3.97743262e+02
929             	3.97743273e+02
930             	3.97743284e+02
931             	3.97743295e+02
932             	3.97743306e+02
933             	3.97743317e+02