# Region        : cellZone fluid
# Cells         : 9247
# Volume        : 1.74522479e+01
# Time          	volAverage(T)
1               	2.99999973e+02
2               	2.99999999e+02
3               	3.00000203e+02
4               	3.00000548e+02
5               	3.00000896e+02
6               	3.00001290e+02
7               	3.00001729e+02
8               	3.00002190e+02
9               	3.00002867e+02
10              	3.00003463e+02
11              	3.00004194e+02
12              	3.00005090e+02
13              	3.00006149e+02
14              	3.00007000e+02
15              	3.00008205e+02
16              	3.00009402e+02
17              	3.00010674e+02
18              	3.00011943e+02
19              	3.00013200e+02
20              	3.00014615e+02
21              	3.00016193e+02
22              	3.00017437e+02
23              	3.00019046e+02
24              	3.00020347e+02
25              	3.00021595e+02
26              	3.00022546e+02
27              	3.00023527e+02
28              	3.00024475e+02
29              	3.00025682e+02
30              	3.00027051e+02
31              	3.00028354e+02
32              	3.00029788e+02
33              	3.00031322e+02
34              	3.00033105e+02
35              	3.00035241e+02
36              	3.00037193e+02
37              	3.00038896e+02
38              	3.00040797e+02
39              	3.00042833e+02
40              	3.00044404e+02
41              	3.00046237e+02
42              	3.00047860e+02
43              	3.00049233e+02
44              	3.00050656e+02
45              	3.00052136e+02
46              	3.00053692e+02
47              	3.00055373e+02
48              	3.00056797e+02
49              	3.00058603e+02
50              	3.00060502e+02
51              	3.00062451e+02
52              	3.00064383e+02
53              	3.00066962e+02
54              	3.00069195e+02
55              	3.00071193e+02
56              	3.00073299e+02
57              	3.00075061e+02
58              	3.00076723e+02
59              	3.00078201e+02
60              	3.00079741e+02
61              	3.00081319e+02
62              	3.00082808e+02
63              	3.00084503e+02
64              	3.00086484e+02
65              	3.00088536e+02
66              	3.00090635e+02
67              	3.00092449e+02
68              	3.00094155e+02
69              	3.00096279e+02
70              	3.00097972e+02
71              	3.00099917e+02
72              	3.00101015e+02
73              	3.00102420e+02
74              	3.00103634e+02
75              	3.00105160e+02
76              	3.00106805e+02
77              	3.00108820e+02
78              	3.00110072e+02
79              	3.00111619e+02
80              	3.00112974e+02
81              	3.00114309e+02
82              	3.00115834e+02
83              	3.00117157e+02
84              	3.00118341e+02
85              	3.00120519e+02
86              	3.00122726e+02
87              	3.00123803e+02
88              	3.00125028e+02
89              	3.00126315e+02
90              	3.00127444e+02
91              	3.00128887e+02
92              	3.00130129e+02
93              	3.00131374e+02
94              	3.00132792e+02
95              	3.00133942e+02
96              	3.00135383e+02
97              	3.00137183e+02
98              	3.00138575e+02
99              	3.00139957e+02
100             	3.00140987e+02
101             	3.00141837e+02
102             	3.00142831e+02
103             	3.00143462e+02
104             	3.00144276e+02
105             	3.00145014e+02
106             	3.00145704e+02
107             	3.00146508e+02
108             	3.00147196e+02
109             	3.00147973e+02
110             	3.00149050e+02
111             	3.00150079e+02
112             	3.00151150e+02
113             	3.00152323e+02
114             	3.00153191e+02
115             	3.00154313e+02
116             	3.00155211e+02
117             	3.00156095e+02
118             	3.00156981e+02
119             	3.00158073e+02
120             	3.00158909e+02
121             	3.00159457e+02
122             	3.00160063e+02
123             	3.00160785e+02
124             	3.00161611e+02
125             	3.00162437e+02
126             	3.00163057e+02
127             	3.00163347e+02
128             	3.00163820e+02
129             	3.00163980e+02
130             	3.00164347e+02
131             	3.00164607e+02
132             	3.00165013e+02
133             	3.00165632e+02
134             	3.00166357e+02
135             	3.00166971e+02
136             	3.00167565e+02
137             	3.00168148e+02
138             	3.00168528e+02
139             	3.00169038e+02
140             	3.00169334e+02
141             	3.00169602e+02
142             	3.00169951e+02
143             	3.00170183e+02
144             	3.00170684e+02
145             	3.00171093e+02
146             	3.00171405e+02
147             	3.00172227e+02
148             	3.00172300e+02
149             	3.00172476e+02
150             	3.00172741e+02
151             	3.00173134e+02
152             	3.00173455e+02
153             	3.00173847e+02
154             	3.00174233e+02
155             	3.00174514e+02
156             	3.00174824e+02
157             	3.00175260e+02
158             	3.00175446e+02
159             	3.00175686e+02
160             	3.00176195e+02
161             	3.00176344e+02
162             	3.00176535e+02
163             	3.00176889e+02
164             	3.00177139e+02
165             	3.00177425e+02
166             	3.00177651e+02
167             	3.00177837e+02
168             	3.00178075e+02
169             	3.00178366e+02
170             	3.00178667e+02
171             	3.00178804e+02
172             	3.00179264e+02
173             	3.00179646e+02
174             	3.00179937e+02
175             	3.00180212e+02
176             	3.00180528e+02
177             	3.00180956e+02
178             	3.00181340e+02
179             	3.00181665e+02
180             	3.00181911e+02
181             	3.00182125e+02
182             	3.00182336e+02
183             	3.00182534e+02
184             	3.00182775e+02
185             	3.00182824e+02
186             	3.00182951e+02
187             	3.00183108e+02
188             	3.00183253e+02
189             	3.00183485e+02
190             	3.00183742e+02
191             	3.00183925e+02
192             	3.00184158e+02
193             	3.00184370e+02
194             	3.00184593e+02
195             	3.00184701e+02
196             	3.00184706e+02
197             	3.00184824e+02
198             	3.00185072e+02
199             	3.00185226e+02
200             	3.00185378e+02
201             	3.00185536e+02
202             	3.00185704e+02
203             	3.00185949e+02
204             	3.00185766e+02
205             	3.00185680e+02
206             	3.00185700e+02
207             	3.00185774e+02
208             	3.00185880e+02
209             	3.00185919e+02
210             	3.00185969e+02
211             	3.00186375e+02
212             	3.00186539e+02
213             	3.00186752e+02
214             	3.00186848e+02
215             	3.00186914e+02
216             	3.00186969e+02
217             	3.00187083e+02
218             	3.00187289e+02
219             	3.00187440e+02
220             	3.00187462e+02
221             	3.00187560e+02
222             	3.00187690e+02
223             	3.00187853e+02
224             	3.00188021e+02
225             	3.00188212e+02
226             	3.00188375e+02
227             	3.00188359e+02
228             	3.00188543e+02
229             	3.00188593e+02
230             	3.00188654e+02
231             	3.00188718e+02
232             	3.00188812e+02
233             	3.00188930e+02
234             	3.00189015e+02
235             	3.00189115e+02
236             	3.00189217e+02
237             	3.00189306e+02
238             	3.00189299e+02
239             	3.00189319e+02
240             	3.00189361e+02
241             	3.00189427e+02
242             	3.00189502e+02
243             	3.00189616e+02
244             	3.00189735e+02
245             	3.00189825e+02
246             	3.00189876e+02
247             	3.00189880e+02
248             	3.00189931e+02
249             	3.00189961e+02
250             	3.00190066e+02
251             	3.00190159e+02
252             	3.00190224e+02
253             	3.00190285e+02
254             	3.00190370e+02
255             	3.00190447e+02
256             	3.00190603e+02
257             	3.00190649e+02
258             	3.00190681e+02
259             	3.00190681e+02
260             	3.00190713e+02
261             	3.00190769e+02
262             	3.00190841e+02
263             	3.00190882e+02
264             	3.00190923e+02
265             	3.00190979e+02
266             	3.00191075e+02
267             	3.00191162e+02
268             	3.00191237e+02
269             	3.00191301e+02
270             	3.00191352e+02
271             	3.00191392e+02
272             	3.00191451e+02
273             	3.00191540e+02
274             	3.00191474e+02
275             	3.00191475e+02
276             	3.00191501e+02
277             	3.00191550e+02
278             	3.00191614e+02
279             	3.00191652e+02
280             	3.00191687e+02
281             	3.00191730e+02
282             	3.00191767e+02
283             	3.00191778e+02
284             	3.00191883e+02
285             	3.00191946e+02
286             	3.00191982e+02
287             	3.00191981e+02
288             	3.00191997e+02
289             	3.00192026e+02
290             	3.00192056e+02
291             	3.00192091e+02
292             	3.00192198e+02
293             	3.00192207e+02
294             	3.00192252e+02
295             	3.00192301e+02
296             	3.00192336e+02
297             	3.00192384e+02
298             	3.00192431e+02
299             	3.00192472e+02
300             	3.00192518e+02
301             	3.00192553e+02
302             	3.00192575e+02
303             	3.00192630e+02
304             	3.00192731e+02
305             	3.00192792e+02
306             	3.00192840e+02
307             	3.00192878e+02
308             	3.00192894e+02
309             	3.00192938e+02
310             	3.00192897e+02
311             	3.00192870e+02
312             	3.00192876e+02
313             	3.00192897e+02
314             	3.00192930e+02
315             	3.00192968e+02
316             	3.00192985e+02
317             	3.00193011e+02
318             	3.00193017e+02
319             	3.00193043e+02
320             	3.00193072e+02
321             	3.00193108e+02
322             	3.00193164e+02
323             	3.00193219e+02
324             	3.00193224e+02
325             	3.00193289e+02
326             	3.00193305e+02
327             	3.00193294e+02
328             	3.00193266e+02
329             	3.00193254e+02
330             	3.00193248e+02
331             	3.00193251e+02
332             	3.00193278e+02
333             	3.00193334e+02
334             	3.00193373e+02
335             	3.00193347e+02
336             	3.00193384e+02
337             	3.00193424e+02
338             	3.00193452e+02
339             	3.00193499e+02
340             	3.00193537e+02
341             	3.00193495e+02
342             	3.00193545e+02
343             	3.00193634e+02
344             	3.00193679e+02
345             	3.00193705e+02
346             	3.00193727e+02
347             	3.00193746e+02
348             	3.00193747e+02
349             	3.00193734e+02
350             	3.00193737e+02
351             	3.00193738e+02
352             	3.00193705e+02
353             	3.00193692e+02
354             	3.00193696e+02
355             	3.00193700e+02
356             	3.00193708e+02
357             	3.00193727e+02
358             	3.00193746e+02
359             	3.00193773e+02
360             	3.00193797e+02
361             	3.00193806e+02
362             	3.00193826e+02
363             	3.00193828e+02
364             	3.00193830e+02
365             	3.00193882e+02
366             	3.00193911e+02
367             	3.00193928e+02
368             	3.00193935e+02
369             	3.00193938e+02
370             	3.00193940e+02
371             	3.00193947e+02
372             	3.00193946e+02
373             	3.00193941e+02
374             	3.00193938e+02
375             	3.00193947e+02
376             	3.00193976e+02
377             	3.00193981e+02
378             	3.00194003e+02
379             	3.00194022e+02
380             	3.00193996e+02
381             	3.00193987e+02
382             	3.00193982e+02
383             	3.00193976e+02
384             	3.00193976e+02
385             	3.00193981e+02
386             	3.00193985e+02
387             	3.00193991e+02
388             	3.00194001e+02
389             	3.00194014e+02
390             	3.00194041e+02
391             	3.00194070e+02
392             	3.00194093e+02
393             	3.00194109e+02
394             	3.00194128e+02
395             	3.00194135e+02
396             	3.00194130e+02
397             	3.00194137e+02
398             	3.00194135e+02
399             	3.00194136e+02
400             	3.00194134e+02
401             	3.00194129e+02
402             	3.00194125e+02
403             	3.00194118e+02
404             	3.00194116e+02
405             	3.00194114e+02
406             	3.00194140e+02
407             	3.00194162e+02
408             	3.00194157e+02
409             	3.00194171e+02
410             	3.00194192e+02
411             	3.00194223e+02
412             	3.00194253e+02
413             	3.00194279e+02
414             	3.00194303e+02
415             	3.00194324e+02
416             	3.00194304e+02
417             	3.00194348e+02
418             	3.00194373e+02
419             	3.00194408e+02
420             	3.00194417e+02
421             	3.00194426e+02
422             	3.00194427e+02
423             	3.00194422e+02
424             	3.00194414e+02
425             	3.00194404e+02
426             	3.00194402e+02
427             	3.00194414e+02
428             	3.00194365e+02
429             	3.00194328e+02
430             	3.00194288e+02
431             	3.00194253e+02
432             	3.00194245e+02
433             	3.00194248e+02
434             	3.00194258e+02
435             	3.00194276e+02
436             	3.00194314e+02
437             	3.00194353e+02
438             	3.00194385e+02
439             	3.00194395e+02
440             	3.00194374e+02
441             	3.00194424e+02
442             	3.00194423e+02
443             	3.00194411e+02
444             	3.00194394e+02
445             	3.00194406e+02
446             	3.00194397e+02
447             	3.00194408e+02
448             	3.00194438e+02
449             	3.00194452e+02
450             	3.00194456e+02
451             	3.00194435e+02
452             	3.00194447e+02
453             	3.00194473e+02
454             	3.00194494e+02
455             	3.00194513e+02
456             	3.00194519e+02
457             	3.00194520e+02
458             	3.00194529e+02
459             	3.00194526e+02
460             	3.00194537e+02
461             	3.00194569e+02
462             	3.00194570e+02
463             	3.00194572e+02
464             	3.00194568e+02
465             	3.00194558e+02
466             	3.00194586e+02
467             	3.00194509e+02
468             	3.00194453e+02
469             	3.00194416e+02
470             	3.00194420e+02
471             	3.00194416e+02
472             	3.00194435e+02
473             	3.00194454e+02
474             	3.00194477e+02
475             	3.00194499e+02
476             	3.00194515e+02
477             	3.00194507e+02
478             	3.00194493e+02
479             	3.00194545e+02
480             	3.00194579e+02
481             	3.00194600e+02
482             	3.00194615e+02
483             	3.00194642e+02
484             	3.00194652e+02
485             	3.00194645e+02
486             	3.00194656e+02
487             	3.00194621e+02
488             	3.00194619e+02
489             	3.00194611e+02
490             	3.00194620e+02
491             	3.00194632e+02
492             	3.00194650e+02
493             	3.00194681e+02
494             	3.00194707e+02
495             	3.00194731e+02
496             	3.00194715e+02
497             	3.00194673e+02
498             	3.00194640e+02
499             	3.00194654e+02
500             	3.00194654e+02
501             	3.00194658e+02
502             	3.00194659e+02
503             	3.00194665e+02
504             	3.00194667e+02
505             	3.00194650e+02
506             	3.00194619e+02
507             	3.00194598e+02
508             	3.00194586e+02
509             	3.00194568e+02
510             	3.00194512e+02
511             	3.00194483e+02
512             	3.00194466e+02
513             	3.00194467e+02
514             	3.00194485e+02
515             	3.00194509e+02
516             	3.00194530e+02
517             	3.00194545e+02
518             	3.00194516e+02
519             	3.00194602e+02
520             	3.00194649e+02
521             	3.00194688e+02
522             	3.00194709e+02
523             	3.00194717e+02
524             	3.00194719e+02
525             	3.00194744e+02
526             	3.00194718e+02
527             	3.00194686e+02
528             	3.00194666e+02
529             	3.00194654e+02
530             	3.00194646e+02
531             	3.00194642e+02
532             	3.00194644e+02
533             	3.00194656e+02
534             	3.00194659e+02
535             	3.00194676e+02
536             	3.00194705e+02
537             	3.00194734e+02
538             	3.00194754e+02
539             	3.00194742e+02
540             	3.00194667e+02
541             	3.00194691e+02
542             	3.00194669e+02
543             	3.00194637e+02
544             	3.00194596e+02
545             	3.00194577e+02
546             	3.00194563e+02
547             	3.00194554e+02
548             	3.00194564e+02
549             	3.00194552e+02
550             	3.00194550e+02
551             	3.00194521e+02
552             	3.00194536e+02
553             	3.00194572e+02
554             	3.00194589e+02
555             	3.00194634e+02
556             	3.00194629e+02
557             	3.00194584e+02
558             	3.00194604e+02
559             	3.00194675e+02
560             	3.00194703e+02
561             	3.00194718e+02
562             	3.00194750e+02
563             	3.00194779e+02
564             	3.00194798e+02
565             	3.00194698e+02
566             	3.00194664e+02
567             	3.00194651e+02
568             	3.00194662e+02
569             	3.00194667e+02
570             	3.00194639e+02
571             	3.00194623e+02
572             	3.00194672e+02
573             	3.00194712e+02
574             	3.00194719e+02
575             	3.00194711e+02
576             	3.00194691e+02
577             	3.00194681e+02
578             	3.00194642e+02
579             	3.00194621e+02
580             	3.00194563e+02
581             	3.00194499e+02
582             	3.00194482e+02
583             	3.00194452e+02
584             	3.00194437e+02
585             	3.00194436e+02
586             	3.00194462e+02
587             	3.00194385e+02
588             	3.00194462e+02
589             	3.00194505e+02
590             	3.00194518e+02
591             	3.00194519e+02
592             	3.00194526e+02
593             	3.00194543e+02
594             	3.00194542e+02
595             	3.00194528e+02
596             	3.00194529e+02
597             	3.00194535e+02
598             	3.00194589e+02
599             	3.00194567e+02
600             	3.00194557e+02
601             	3.00194567e+02
602             	3.00194564e+02
603             	3.00194552e+02
604             	3.00194560e+02
605             	3.00194557e+02
606             	3.00194549e+02
607             	3.00194511e+02
608             	3.00194532e+02
609             	3.00194585e+02
610             	3.00194615e+02
611             	3.00194632e+02
612             	3.00194647e+02
613             	3.00194642e+02
614             	3.00194621e+02
615             	3.00194617e+02
616             	3.00194521e+02
617             	3.00194459e+02
618             	3.00194408e+02
619             	3.00194387e+02
620             	3.00194424e+02
621             	3.00194443e+02
622             	3.00194510e+02
623             	3.00194567e+02
624             	3.00194605e+02
625             	3.00194632e+02
626             	3.00194639e+02
627             	3.00194641e+02
628             	3.00194642e+02
629             	3.00194647e+02
630             	3.00194648e+02
631             	3.00194655e+02
632             	3.00194654e+02
633             	3.00194633e+02
634             	3.00194640e+02
635             	3.00194641e+02
636             	3.00194652e+02
637             	3.00194672e+02
638             	3.00194692e+02
639             	3.00194660e+02
640             	3.00194647e+02
641             	3.00194625e+02
642             	3.00194625e+02
643             	3.00194628e+02
644             	3.00194620e+02
645             	3.00194614e+02
646             	3.00194609e+02
647             	3.00194606e+02
648             	3.00194612e+02
649             	3.00194605e+02
650             	3.00194600e+02
651             	3.00194590e+02
652             	3.00194593e+02
653             	3.00194597e+02
654             	3.00194605e+02
655             	3.00194614e+02
656             	3.00194632e+02
657             	3.00194653e+02
658             	3.00194677e+02
659             	3.00194706e+02
660             	3.00194728e+02
661             	3.00194742e+02
662             	3.00194749e+02
663             	3.00194747e+02
664             	3.00194732e+02
665             	3.00194719e+02
666             	3.00194707e+02
667             	3.00194692e+02
668             	3.00194675e+02
669             	3.00194666e+02
670             	3.00194661e+02
671             	3.00194658e+02
672             	3.00194661e+02
673             	3.00194670e+02
674             	3.00194677e+02
675             	3.00194692e+02
676             	3.00194699e+02
677             	3.00194701e+02
678             	3.00194707e+02
679             	3.00194697e+02
680             	3.00194686e+02
681             	3.00194674e+02
682             	3.00194663e+02
683             	3.00194655e+02
684             	3.00194640e+02
685             	3.00194622e+02
686             	3.00194603e+02
687             	3.00194585e+02
688             	3.00194574e+02
689             	3.00194568e+02
690             	3.00194563e+02
691             	3.00194561e+02
692             	3.00194560e+02
693             	3.00194563e+02
694             	3.00194563e+02
695             	3.00194563e+02
696             	3.00194569e+02
697             	3.00194589e+02
698             	3.00194597e+02
699             	3.00194609e+02
700             	3.00194625e+02
701             	3.00194641e+02
702             	3.00194662e+02
703             	3.00194676e+02
704             	3.00194687e+02
705             	3.00194695e+02
706             	3.00194703e+02
707             	3.00194710e+02
708             	3.00194714e+02
709             	3.00194721e+02
710             	3.00194725e+02
711             	3.00194726e+02
712             	3.00194726e+02
713             	3.00194723e+02
714             	3.00194720e+02
715             	3.00194718e+02
716             	3.00194713e+02
717             	3.00194723e+02
718             	3.00194733e+02
719             	3.00194726e+02
720             	3.00194719e+02
721             	3.00194708e+02
722             	3.00194691e+02
723             	3.00194672e+02
724             	3.00194653e+02
725             	3.00194630e+02
726             	3.00194608e+02
727             	3.00194587e+02
728             	3.00194568e+02
729             	3.00194549e+02
730             	3.00194532e+02
731             	3.00194521e+02
732             	3.00194512e+02
733             	3.00194503e+02
734             	3.00194500e+02
735             	3.00194489e+02
736             	3.00194482e+02
737             	3.00194481e+02
738             	3.00194481e+02
739             	3.00194484e+02
740             	3.00194483e+02
741             	3.00194497e+02
742             	3.00194510e+02
743             	3.00194529e+02
744             	3.00194546e+02
745             	3.00194572e+02
746             	3.00194592e+02
747             	3.00194618e+02
748             	3.00194635e+02
749             	3.00194654e+02
750             	3.00194671e+02
751             	3.00194681e+02
752             	3.00194691e+02
753             	3.00194705e+02
754             	3.00194715e+02
755             	3.00194719e+02
756             	3.00194707e+02
757             	3.00194692e+02
758             	3.00194672e+02
759             	3.00194648e+02
760             	3.00194627e+02
761             	3.00194608e+02
762             	3.00194591e+02
763             	3.00194575e+02
764             	3.00194564e+02
765             	3.00194556e+02
766             	3.00194546e+02
767             	3.00194538e+02
768             	3.00194530e+02
769             	3.00194521e+02
770             	3.00194511e+02
771             	3.00194506e+02
772             	3.00194502e+02
773             	3.00194502e+02
774             	3.00194508e+02
775             	3.00194518e+02
776             	3.00194532e+02
777             	3.00194548e+02
778             	3.00194558e+02
779             	3.00194562e+02
780             	3.00194564e+02
781             	3.00194563e+02
782             	3.00194565e+02
783             	3.00194571e+02
784             	3.00194577e+02
785             	3.00194576e+02
786             	3.00194579e+02
787             	3.00194587e+02
788             	3.00194599e+02
789             	3.00194601e+02
790             	3.00194607e+02
791             	3.00194614e+02
792             	3.00194615e+02
793             	3.00194614e+02
794             	3.00194610e+02
795             	3.00194605e+02
796             	3.00194596e+02
797             	3.00194587e+02
798             	3.00194579e+02
799             	3.00194576e+02
800             	3.00194570e+02
801             	3.00194563e+02
802             	3.00194554e+02
803             	3.00194543e+02
804             	3.00194532e+02
805             	3.00194528e+02
806             	3.00194523e+02
807             	3.00194527e+02
808             	3.00194530e+02
809             	3.00194538e+02
810             	3.00194553e+02
811             	3.00194573e+02
812             	3.00194597e+02
813             	3.00194618e+02
814             	3.00194631e+02
815             	3.00194639e+02
816             	3.00194649e+02
817             	3.00194658e+02
818             	3.00194669e+02
819             	3.00194677e+02
820             	3.00194682e+02
821             	3.00194674e+02
822             	3.00194703e+02
823             	3.00194717e+02
824             	3.00194725e+02
825             	3.00194728e+02
826             	3.00194723e+02
827             	3.00194712e+02
828             	3.00194703e+02
829             	3.00194674e+02
830             	3.00194641e+02
831             	3.00194613e+02
832             	3.00194588e+02
833             	3.00194571e+02
834             	3.00194561e+02
835             	3.00194554e+02
836             	3.00194550e+02
837             	3.00194541e+02
838             	3.00194537e+02
839             	3.00194531e+02
840             	3.00194526e+02
841             	3.00194512e+02
842             	3.00194504e+02
843             	3.00194498e+02
844             	3.00194494e+02
845             	3.00194499e+02
846             	3.00194526e+02
847             	3.00194546e+02
848             	3.00194562e+02
849             	3.00194573e+02
850             	3.00194587e+02
851             	3.00194603e+02
852             	3.00194620e+02
853             	3.00194635e+02
854             	3.00194646e+02
855             	3.00194650e+02
856             	3.00194654e+02
857             	3.00194655e+02
858             	3.00194661e+02
859             	3.00194669e+02
860             	3.00194673e+02
861             	3.00194677e+02
862             	3.00194679e+02
863             	3.00194683e+02
864             	3.00194686e+02
865             	3.00194688e+02
866             	3.00194677e+02
867             	3.00194667e+02
868             	3.00194650e+02
869             	3.00194630e+02
870             	3.00194608e+02
871             	3.00194587e+02
872             	3.00194567e+02
873             	3.00194548e+02
874             	3.00194540e+02
875             	3.00194533e+02
876             	3.00194530e+02
877             	3.00194528e+02
878             	3.00194533e+02
879             	3.00194536e+02
880             	3.00194538e+02
881             	3.00194530e+02
882             	3.00194527e+02
883             	3.00194528e+02
884             	3.00194528e+02
885             	3.00194529e+02
886             	3.00194531e+02
887             	3.00194533e+02
888             	3.00194538e+02
889             	3.00194544e+02
890             	3.00194549e+02
891             	3.00194558e+02
892             	3.00194570e+02
893             	3.00194589e+02
894             	3.00194610e+02
895             	3.00194630e+02
896             	3.00194648e+02
897             	3.00194663e+02
898             	3.00194668e+02
899             	3.00194665e+02
900             	3.00194660e+02
901             	3.00194653e+02
902             	3.00194642e+02
903             	3.00194631e+02
904             	3.00194628e+02
905             	3.00194634e+02
906             	3.00194625e+02
907             	3.00194620e+02
908             	3.00194614e+02
909             	3.00194608e+02
910             	3.00194601e+02
911             	3.00194596e+02
912             	3.00194586e+02
913             	3.00194580e+02
914             	3.00194572e+02
915             	3.00194565e+02
916             	3.00194558e+02
917             	3.00194552e+02
918             	3.00194554e+02
919             	3.00194548e+02
920             	3.00194543e+02
921             	3.00194539e+02
922             	3.00194536e+02
923             	3.00194540e+02
924             	3.00194550e+02
925             	3.00194562e+02
926             	3.00194575e+02
927             	3.00194586e+02
928             	3.00194599e+02
929             	3.00194610e+02
930             	3.00194619e+02
931             	3.00194627e+02
932             	3.00194636e+02
933             	3.00194644e+02