# Region        : cellZone fluid
# Cells         : 9369
# Volume        : 1.82192733e+01
# Time          	volAverage(T)
1               	3.00000184e+02
2               	3.00000335e+02
3               	3.00001504e+02
4               	3.00002853e+02
5               	3.00004030e+02
6               	3.00004998e+02
7               	3.00006145e+02
8               	3.00007380e+02
9               	3.00009238e+02
10              	3.00010869e+02
11              	3.00012832e+02
12              	3.00014475e+02
13              	3.00016474e+02
14              	3.00018935e+02
15              	3.00020683e+02
16              	3.00022883e+02
17              	3.00025210e+02
18              	3.00027299e+02
19              	3.00030191e+02
20              	3.00033173e+02
21              	3.00036652e+02
22              	3.00038749e+02
23              	3.00040752e+02
24              	3.00044134e+02
25              	3.00047773e+02
26              	3.00050711e+02
27              	3.00054266e+02
28              	3.00057355e+02
29              	3.00060620e+02
30              	3.00063923e+02
31              	3.00067237e+02
32              	3.00070477e+02
33              	3.00074235e+02
34              	3.00078393e+02
35              	3.00082556e+02
36              	3.00085253e+02
37              	3.00088661e+02
38              	3.00091851e+02
39              	3.00095231e+02
40              	3.00099054e+02
41              	3.00102904e+02
42              	3.00107398e+02
43              	3.00110234e+02
44              	3.00114006e+02
45              	3.00119138e+02
46              	3.00122747e+02
47              	3.00126667e+02
48              	3.00130779e+02
49              	3.00133602e+02
50              	3.00137152e+02
51              	3.00140520e+02
52              	3.00144676e+02
53              	3.00148115e+02
54              	3.00151878e+02
55              	3.00155283e+02
56              	3.00159014e+02
57              	3.00163176e+02
58              	3.00165933e+02
59              	3.00169665e+02
60              	3.00172415e+02
61              	3.00175648e+02
62              	3.00178224e+02
63              	3.00181629e+02
64              	3.00185422e+02
65              	3.00188055e+02
66              	3.00191239e+02
67              	3.00194981e+02
68              	3.00197920e+02
69              	3.00200480e+02
70              	3.00202460e+02
71              	3.00205229e+02
72              	3.00208106e+02
73              	3.00211218e+02
74              	3.00214391e+02
75              	3.00217469e+02
76              	3.00221720e+02
77              	3.00225201e+02
78              	3.00228168e+02
79              	3.00230802e+02
80              	3.00233193e+02
81              	3.00234587e+02
82              	3.00236171e+02
83              	3.00239387e+02
84              	3.00242601e+02
85              	3.00245585e+02
86              	3.00249088e+02
87              	3.00252775e+02
88              	3.00255880e+02
89              	3.00259247e+02
90              	3.00262009e+02
91              	3.00263876e+02
92              	3.00266365e+02
93              	3.00268423e+02
94              	3.00271052e+02
95              	3.00272648e+02
96              	3.00274420e+02
97              	3.00276766e+02
98              	3.00279803e+02
99              	3.00282429e+02
100             	3.00285526e+02
101             	3.00288176e+02
102             	3.00290676e+02
103             	3.00292529e+02
104             	3.00294543e+02
105             	3.00296780e+02
106             	3.00298525e+02
107             	3.00299586e+02
108             	3.00301064e+02
109             	3.00303310e+02
110             	3.00305046e+02
111             	3.00306741e+02
112             	3.00308713e+02
113             	3.00310488e+02
114             	3.00312306e+02
115             	3.00313623e+02
116             	3.00315458e+02
117             	3.00316812e+02
118             	3.00318232e+02
119             	3.00319844e+02
120             	3.00321333e+02
121             	3.00322433e+02
122             	3.00324522e+02
123             	3.00326607e+02
124             	3.00328610e+02
125             	3.00330217e+02
126             	3.00331966e+02
127             	3.00333519e+02
128             	3.00334999e+02
129             	3.00336121e+02
130             	3.00337016e+02
131             	3.00338535e+02
132             	3.00339968e+02
133             	3.00340947e+02
134             	3.00342184e+02
135             	3.00343179e+02
136             	3.00344363e+02
137             	3.00345644e+02
138             	3.00347075e+02
139             	3.00346798e+02
140             	3.00347412e+02
141             	3.00348028e+02
142             	3.00348068e+02
143             	3.00348191e+02
144             	3.00349030e+02
145             	3.00350013e+02
146             	3.00350889e+02
147             	3.00352130e+02
148             	3.00353580e+02
149             	3.00354957e+02
150             	3.00356392e+02
151             	3.00357543e+02
152             	3.00358406e+02
153             	3.00359437e+02
154             	3.00359974e+02
155             	3.00360068e+02
156             	3.00361112e+02
157             	3.00361203e+02
158             	3.00361058e+02
159             	3.00360939e+02
160             	3.00360871e+02
161             	3.00361082e+02
162             	3.00361429e+02
163             	3.00361724e+02
164             	3.00362121e+02
165             	3.00362469e+02
166             	3.00362839e+02
167             	3.00363365e+02
168             	3.00363875e+02
169             	3.00364372e+02
170             	3.00364633e+02
171             	3.00365416e+02
172             	3.00365539e+02
173             	3.00365707e+02
174             	3.00366479e+02
175             	3.00366878e+02
176             	3.00366980e+02
177             	3.00368192e+02
178             	3.00368372e+02
179             	3.00368739e+02
180             	3.00369103e+02
181             	3.00369410e+02
182             	3.00369923e+02
183             	3.00370224e+02
184             	3.00370476e+02
185             	3.00370727e+02
186             	3.00371052e+02
187             	3.00371194e+02
188             	3.00371170e+02
189             	3.00371096e+02
190             	3.00370350e+02
191             	3.00370059e+02
192             	3.00369977e+02
193             	3.00369749e+02
194             	3.00369344e+02
195             	3.00369861e+02
196             	3.00370049e+02
197             	3.00370126e+02
198             	3.00370491e+02
199             	3.00370848e+02
200             	3.00371263e+02
201             	3.00372076e+02
202             	3.00372604e+02
203             	3.00373065e+02
204             	3.00373865e+02
205             	3.00374471e+02
206             	3.00374911e+02
207             	3.00375338e+02
208             	3.00375484e+02
209             	3.00375279e+02
210             	3.00375173e+02
211             	3.00374992e+02
212             	3.00374604e+02
213             	3.00374249e+02
214             	3.00373808e+02
215             	3.00373463e+02
216             	3.00373100e+02
217             	3.00372757e+02
218             	3.00372532e+02
219             	3.00372326e+02
220             	3.00372142e+02
221             	3.00372068e+02
222             	3.00372097e+02
223             	3.00372091e+02
224             	3.00372255e+02
225             	3.00372456e+02
226             	3.00372934e+02
227             	3.00373266e+02
228             	3.00373854e+02
229             	3.00374439e+02
230             	3.00375007e+02
231             	3.00375584e+02
232             	3.00376112e+02
233             	3.00376541e+02
234             	3.00376831e+02
235             	3.00377001e+02
236             	3.00377188e+02
237             	3.00377166e+02
238             	3.00377019e+02
239             	3.00376961e+02
240             	3.00376823e+02
241             	3.00376634e+02
242             	3.00376602e+02
243             	3.00375894e+02
244             	3.00375658e+02
245             	3.00375562e+02
246             	3.00375366e+02
247             	3.00375161e+02
248             	3.00374828e+02
249             	3.00374981e+02
250             	3.00374828e+02
251             	3.00374824e+02
252             	3.00375121e+02
253             	3.00375455e+02
254             	3.00375764e+02
255             	3.00376133e+02
256             	3.00376529e+02
257             	3.00377079e+02
258             	3.00377605e+02
259             	3.00378022e+02
260             	3.00378154e+02
261             	3.00378490e+02
262             	3.00378381e+02
263             	3.00378399e+02
264             	3.00378362e+02
265             	3.00378094e+02
266             	3.00377677e+02
267             	3.00377399e+02
268             	3.00377037e+02
269             	3.00376586e+02
270             	3.00376257e+02
271             	3.00376216e+02
272             	3.00375908e+02
273             	3.00375721e+02
274             	3.00375888e+02
275             	3.00376034e+02
276             	3.00376280e+02
277             	3.00376393e+02
278             	3.00376824e+02
279             	3.00377205e+02
280             	3.00377558e+02
281             	3.00377881e+02
282             	3.00378291e+02
283             	3.00378552e+02
284             	3.00378713e+02
285             	3.00378915e+02
286             	3.00378960e+02
287             	3.00378903e+02
288             	3.00378933e+02
289             	3.00378828e+02
290             	3.00378632e+02
291             	3.00378522e+02
292             	3.00378347e+02
293             	3.00378154e+02
294             	3.00378067e+02
295             	3.00377959e+02
296             	3.00377862e+02
297             	3.00377811e+02
298             	3.00377947e+02
299             	3.00378042e+02
300             	3.00378024e+02
301             	3.00378124e+02
302             	3.00378399e+02
303             	3.00378595e+02
304             	3.00378756e+02
305             	3.00378916e+02
306             	3.00379212e+02
307             	3.00379417e+02
308             	3.00379571e+02
309             	3.00379687e+02
310             	3.00379924e+02
311             	3.00380028e+02
312             	3.00380047e+02
313             	3.00380181e+02
314             	3.00380170e+02
315             	3.00380098e+02
316             	3.00379972e+02
317             	3.00379975e+02
318             	3.00379860e+02
319             	3.00379701e+02
320             	3.00379521e+02
321             	3.00379471e+02
322             	3.00379325e+02
323             	3.00379151e+02
324             	3.00378967e+02
325             	3.00378926e+02
326             	3.00378783e+02
327             	3.00378625e+02
328             	3.00378463e+02
329             	3.00378472e+02
330             	3.00378416e+02
331             	3.00378392e+02
332             	3.00378344e+02
333             	3.00378578e+02
334             	3.00378666e+02
335             	3.00378789e+02
336             	3.00378926e+02
337             	3.00379211e+02
338             	3.00379403e+02
339             	3.00379549e+02
340             	3.00379775e+02
341             	3.00379892e+02
342             	3.00379935e+02
343             	3.00379921e+02
344             	3.00380032e+02
345             	3.00380020e+02
346             	3.00379895e+02
347             	3.00379803e+02
348             	3.00379833e+02
349             	3.00379746e+02
350             	3.00379623e+02
351             	3.00379485e+02
352             	3.00379514e+02
353             	3.00379486e+02
354             	3.00379455e+02
355             	3.00379424e+02
356             	3.00379574e+02
357             	3.00379628e+02
358             	3.00379641e+02
359             	3.00379676e+02
360             	3.00379859e+02
361             	3.00379937e+02
362             	3.00379992e+02
363             	3.00379999e+02
364             	3.00379947e+02
365             	3.00380033e+02
366             	3.00380106e+02
367             	3.00380093e+02
368             	3.00380097e+02
369             	3.00380089e+02
370             	3.00380214e+02
371             	3.00380261e+02
372             	3.00380233e+02
373             	3.00380178e+02
374             	3.00380256e+02
375             	3.00380195e+02
376             	3.00380114e+02
377             	3.00380017e+02
378             	3.00380056e+02
379             	3.00379999e+02
380             	3.00379932e+02
381             	3.00379830e+02
382             	3.00379926e+02
383             	3.00379970e+02
384             	3.00379910e+02
385             	3.00379836e+02
386             	3.00380012e+02
387             	3.00380084e+02
388             	3.00380116e+02
389             	3.00380114e+02
390             	3.00380230e+02
391             	3.00380193e+02
392             	3.00380089e+02
393             	3.00380218e+02
394             	3.00380119e+02
395             	3.00379989e+02
396             	3.00379905e+02
397             	3.00379940e+02
398             	3.00379868e+02
399             	3.00379758e+02
400             	3.00379651e+02
401             	3.00379700e+02
402             	3.00379675e+02
403             	3.00379651e+02
404             	3.00379624e+02
405             	3.00379612e+02
406             	3.00379638e+02
407             	3.00379629e+02
408             	3.00379565e+02
409             	3.00379654e+02
410             	3.00379692e+02
411             	3.00379721e+02
412             	3.00379906e+02
413             	3.00380012e+02
414             	3.00380052e+02
415             	3.00380115e+02
416             	3.00380335e+02
417             	3.00380467e+02
418             	3.00380502e+02
419             	3.00380481e+02
420             	3.00380575e+02
421             	3.00380538e+02
422             	3.00380567e+02
423             	3.00380457e+02
424             	3.00380423e+02
425             	3.00380378e+02
426             	3.00380307e+02
427             	3.00380222e+02
428             	3.00380121e+02
429             	3.00380033e+02
430             	3.00379977e+02
431             	3.00379952e+02
432             	3.00379959e+02
433             	3.00379911e+02
434             	3.00379864e+02
435             	3.00379831e+02
436             	3.00379939e+02
437             	3.00380010e+02
438             	3.00380064e+02
439             	3.00380099e+02
440             	3.00380292e+02
441             	3.00380388e+02
442             	3.00380446e+02
443             	3.00380478e+02
444             	3.00380651e+02
445             	3.00380712e+02
446             	3.00380723e+02
447             	3.00380698e+02
448             	3.00380807e+02
449             	3.00380801e+02
450             	3.00380744e+02
451             	3.00380650e+02
452             	3.00380695e+02
453             	3.00380634e+02
454             	3.00380525e+02
455             	3.00380393e+02
456             	3.00380406e+02
457             	3.00380327e+02
458             	3.00380220e+02
459             	3.00380105e+02
460             	3.00380151e+02
461             	3.00380121e+02
462             	3.00380078e+02
463             	3.00380033e+02
464             	3.00380160e+02
465             	3.00380213e+02
466             	3.00380249e+02
467             	3.00380282e+02
468             	3.00380470e+02
469             	3.00380564e+02
470             	3.00380618e+02
471             	3.00380736e+02
472             	3.00380872e+02
473             	3.00380924e+02
474             	3.00380932e+02
475             	3.00380907e+02
476             	3.00381012e+02
477             	3.00381021e+02
478             	3.00380956e+02
479             	3.00380958e+02
480             	3.00381098e+02
481             	3.00381135e+02
482             	3.00381076e+02
483             	3.00381017e+02
484             	3.00381108e+02
485             	3.00381073e+02
486             	3.00381013e+02
487             	3.00380934e+02
488             	3.00380974e+02
489             	3.00380971e+02
490             	3.00380964e+02
491             	3.00380873e+02
492             	3.00380947e+02
493             	3.00380975e+02
494             	3.00380978e+02
495             	3.00380951e+02
496             	3.00381087e+02
497             	3.00381163e+02
498             	3.00381196e+02
499             	3.00381188e+02
500             	3.00381335e+02
501             	3.00381381e+02
502             	3.00381406e+02
503             	3.00381406e+02
504             	3.00381517e+02
505             	3.00381508e+02
506             	3.00381515e+02
507             	3.00381455e+02
508             	3.00381526e+02
509             	3.00381516e+02
510             	3.00381463e+02
511             	3.00381392e+02
512             	3.00381465e+02
513             	3.00381452e+02
514             	3.00381405e+02
515             	3.00381293e+02
516             	3.00381395e+02
517             	3.00381439e+02
518             	3.00381448e+02
519             	3.00381443e+02
520             	3.00381578e+02
521             	3.00381602e+02
522             	3.00381598e+02
523             	3.00381573e+02
524             	3.00381693e+02
525             	3.00381753e+02
526             	3.00381723e+02
527             	3.00381679e+02
528             	3.00381790e+02
529             	3.00381832e+02
530             	3.00381840e+02
531             	3.00381817e+02
532             	3.00381954e+02
533             	3.00381998e+02
534             	3.00381978e+02
535             	3.00381931e+02
536             	3.00381999e+02
537             	3.00382045e+02
538             	3.00382029e+02
539             	3.00381973e+02
540             	3.00382052e+02
541             	3.00382070e+02
542             	3.00382049e+02
543             	3.00381931e+02
544             	3.00381972e+02
545             	3.00381936e+02
546             	3.00381886e+02
547             	3.00381803e+02
548             	3.00381899e+02
549             	3.00382012e+02
550             	3.00382112e+02
551             	3.00382215e+02
552             	3.00382321e+02
553             	3.00382390e+02
554             	3.00382434e+02
555             	3.00382476e+02
556             	3.00382497e+02
557             	3.00382490e+02
558             	3.00382476e+02
559             	3.00382460e+02
560             	3.00382478e+02
561             	3.00382469e+02
562             	3.00382463e+02
563             	3.00382489e+02
564             	3.00382543e+02
565             	3.00382525e+02
566             	3.00382573e+02
567             	3.00382622e+02
568             	3.00382650e+02
569             	3.00382663e+02
570             	3.00382671e+02
571             	3.00382688e+02
572             	3.00382711e+02
573             	3.00382727e+02
574             	3.00382752e+02
575             	3.00382776e+02
576             	3.00382785e+02
577             	3.00382823e+02
578             	3.00382859e+02
579             	3.00382879e+02
580             	3.00382894e+02
581             	3.00382904e+02
582             	3.00382909e+02
583             	3.00382907e+02
584             	3.00382925e+02
585             	3.00382932e+02
586             	3.00382938e+02
587             	3.00382948e+02
588             	3.00382960e+02
589             	3.00382973e+02
590             	3.00382971e+02
591             	3.00382974e+02
592             	3.00382954e+02
593             	3.00382930e+02
594             	3.00382914e+02
595             	3.00382884e+02
596             	3.00382856e+02
597             	3.00382846e+02
598             	3.00382839e+02
599             	3.00382839e+02
600             	3.00382846e+02
601             	3.00382876e+02
602             	3.00382912e+02
603             	3.00382942e+02
604             	3.00382965e+02
605             	3.00383000e+02
606             	3.00383032e+02
607             	3.00383056e+02
608             	3.00383073e+02
609             	3.00383081e+02
610             	3.00383077e+02
611             	3.00383095e+02
612             	3.00383100e+02
613             	3.00383109e+02
614             	3.00383118e+02
615             	3.00383129e+02
616             	3.00383140e+02
617             	3.00383176e+02
618             	3.00383170e+02
619             	3.00383162e+02
620             	3.00383149e+02
621             	3.00383146e+02
622             	3.00383143e+02
623             	3.00383140e+02
624             	3.00383138e+02
625             	3.00383149e+02
626             	3.00383165e+02
627             	3.00383201e+02
628             	3.00383224e+02
629             	3.00383239e+02
630             	3.00383251e+02
631             	3.00383260e+02
632             	3.00383261e+02
633             	3.00383253e+02
634             	3.00383238e+02
635             	3.00383237e+02
636             	3.00383243e+02
637             	3.00383251e+02
638             	3.00383270e+02
639             	3.00383295e+02
640             	3.00383324e+02
641             	3.00383365e+02
642             	3.00383386e+02
643             	3.00383401e+02
644             	3.00383409e+02
645             	3.00383412e+02
646             	3.00383410e+02
647             	3.00383406e+02
648             	3.00383402e+02
649             	3.00383392e+02
650             	3.00383382e+02
651             	3.00383374e+02
652             	3.00383368e+02
653             	3.00383363e+02
654             	3.00383361e+02
655             	3.00383359e+02
656             	3.00383361e+02
657             	3.00383369e+02
658             	3.00383377e+02
659             	3.00383389e+02
660             	3.00383393e+02
661             	3.00383407e+02
662             	3.00383422e+02
663             	3.00383434e+02
664             	3.00383443e+02
665             	3.00383454e+02
666             	3.00383463e+02
667             	3.00383468e+02
668             	3.00383468e+02
669             	3.00383468e+02
670             	3.00383467e+02
671             	3.00383469e+02
672             	3.00383458e+02
673             	3.00383448e+02
674             	3.00383437e+02
675             	3.00383430e+02
676             	3.00383421e+02
677             	3.00383416e+02
678             	3.00383406e+02
679             	3.00383406e+02
680             	3.00383411e+02
681             	3.00383412e+02
682             	3.00383420e+02
683             	3.00383430e+02
684             	3.00383440e+02
685             	3.00383448e+02
686             	3.00383458e+02
687             	3.00383470e+02
688             	3.00383481e+02
689             	3.00383490e+02
690             	3.00383498e+02
691             	3.00383503e+02
692             	3.00383505e+02
693             	3.00383504e+02
694             	3.00383502e+02
695             	3.00383500e+02
696             	3.00383505e+02
697             	3.00383498e+02
698             	3.00383491e+02
699             	3.00383485e+02
700             	3.00383479e+02
701             	3.00383475e+02
702             	3.00383474e+02
703             	3.00383472e+02
704             	3.00383464e+02
705             	3.00383467e+02
706             	3.00383455e+02
707             	3.00383460e+02
708             	3.00383464e+02
709             	3.00383466e+02
710             	3.00383470e+02
711             	3.00383475e+02
712             	3.00383479e+02
713             	3.00383479e+02
714             	3.00383484e+02
715             	3.00383482e+02
716             	3.00383480e+02
717             	3.00383492e+02
718             	3.00383491e+02
719             	3.00383492e+02
720             	3.00383494e+02
721             	3.00383499e+02
722             	3.00383506e+02
723             	3.00383511e+02
724             	3.00383515e+02
725             	3.00383521e+02
726             	3.00383527e+02
727             	3.00383530e+02
728             	3.00383533e+02
729             	3.00383529e+02
730             	3.00383530e+02
731             	3.00383532e+02
732             	3.00383533e+02
733             	3.00383530e+02
734             	3.00383527e+02
735             	3.00383523e+02
736             	3.00383517e+02
737             	3.00383516e+02
738             	3.00383518e+02
739             	3.00383517e+02
740             	3.00383517e+02
741             	3.00383519e+02
742             	3.00383521e+02
743             	3.00383524e+02
744             	3.00383533e+02
745             	3.00383536e+02
746             	3.00383540e+02
747             	3.00383545e+02
748             	3.00383549e+02
749             	3.00383554e+02
750             	3.00383559e+02
751             	3.00383563e+02
752             	3.00383568e+02
753             	3.00383574e+02
754             	3.00383575e+02
755             	3.00383576e+02
756             	3.00383575e+02
757             	3.00383574e+02
758             	3.00383572e+02
759             	3.00383569e+02
760             	3.00383564e+02
761             	3.00383558e+02
762             	3.00383555e+02
763             	3.00383552e+02
764             	3.00383550e+02
765             	3.00383549e+02
766             	3.00383550e+02
767             	3.00383555e+02
768             	3.00383556e+02
769             	3.00383558e+02
770             	3.00383561e+02
771             	3.00383566e+02
772             	3.00383569e+02
773             	3.00383574e+02
774             	3.00383581e+02
775             	3.00383586e+02
776             	3.00383591e+02
777             	3.00383593e+02
778             	3.00383600e+02
779             	3.00383605e+02
780             	3.00383610e+02
781             	3.00383612e+02
782             	3.00383614e+02
783             	3.00383613e+02
784             	3.00383611e+02
785             	3.00383607e+02
786             	3.00383607e+02
787             	3.00383603e+02
788             	3.00383600e+02
789             	3.00383598e+02
790             	3.00383597e+02
791             	3.00383597e+02
792             	3.00383598e+02
793             	3.00383600e+02
794             	3.00383603e+02
795             	3.00383607e+02
796             	3.00383611e+02
797             	3.00383615e+02
798             	3.00383617e+02
799             	3.00383621e+02
800             	3.00383625e+02
801             	3.00383629e+02
802             	3.00383633e+02
803             	3.00383636e+02
804             	3.00383640e+02
805             	3.00383642e+02
806             	3.00383644e+02
807             	3.00383647e+02
808             	3.00383649e+02
809             	3.00383649e+02
810             	3.00383650e+02
811             	3.00383650e+02
812             	3.00383650e+02
813             	3.00383650e+02
814             	3.00383649e+02
815             	3.00383650e+02
816             	3.00383651e+02
817             	3.00383650e+02
818             	3.00383651e+02
819             	3.00383653e+02
820             	3.00383654e+02
821             	3.00383655e+02
822             	3.00383657e+02
823             	3.00383658e+02
824             	3.00383660e+02
825             	3.00383663e+02
826             	3.00383664e+02
827             	3.00383666e+02
828             	3.00383669e+02
829             	3.00383670e+02
830             	3.00383673e+02
831             	3.00383675e+02
832             	3.00383678e+02
833             	3.00383679e+02
834             	3.00383682e+02
835             	3.00383683e+02
836             	3.00383686e+02
837             	3.00383689e+02
838             	3.00383690e+02
839             	3.00383692e+02
840             	3.00383692e+02
841             	3.00383693e+02
842             	3.00383694e+02
843             	3.00383695e+02
844             	3.00383694e+02
845             	3.00383695e+02
846             	3.00383695e+02
847             	3.00383695e+02
848             	3.00383695e+02
849             	3.00383697e+02
850             	3.00383697e+02
851             	3.00383698e+02
852             	3.00383700e+02
853             	3.00383701e+02
854             	3.00383703e+02
855             	3.00383706e+02
856             	3.00383707e+02
857             	3.00383709e+02
858             	3.00383712e+02
859             	3.00383714e+02
860             	3.00383716e+02
861             	3.00383719e+02
862             	3.00383720e+02
863             	3.00383723e+02
864             	3.00383725e+02
865             	3.00383725e+02
866             	3.00383726e+02
867             	3.00383727e+02
868             	3.00383727e+02
869             	3.00383727e+02
870             	3.00383728e+02
871             	3.00383725e+02
872             	3.00383726e+02
873             	3.00383727e+02
874             	3.00383726e+02
875             	3.00383727e+02
876             	3.00383728e+02
877             	3.00383730e+02
878             	3.00383730e+02
879             	3.00383731e+02
880             	3.00383730e+02
881             	3.00383731e+02
882             	3.00383732e+02
883             	3.00383733e+02
884             	3.00383734e+02
885             	3.00383735e+02
886             	3.00383737e+02
887             	3.00383740e+02
888             	3.00383743e+02
889             	3.00383744e+02
890             	3.00383746e+02
891             	3.00383748e+02
892             	3.00383749e+02
893             	3.00383750e+02
894             	3.00383751e+02
895             	3.00383751e+02
896             	3.00383750e+02
897             	3.00383751e+02
898             	3.00383751e+02
899             	3.00383750e+02
900             	3.00383751e+02
901             	3.00383750e+02
902             	3.00383750e+02
903             	3.00383751e+02
904             	3.00383752e+02
905             	3.00383752e+02
906             	3.00383753e+02
907             	3.00383753e+02
908             	3.00383754e+02
909             	3.00383755e+02
910             	3.00383756e+02
911             	3.00383758e+02
912             	3.00383759e+02
913             	3.00383760e+02
914             	3.00383761e+02
915             	3.00383763e+02
916             	3.00383764e+02
917             	3.00383766e+02
918             	3.00383768e+02
919             	3.00383768e+02
920             	3.00383769e+02
921             	3.00383771e+02
922             	3.00383771e+02
923             	3.00383772e+02
924             	3.00383773e+02
925             	3.00383773e+02
926             	3.00383773e+02
927             	3.00383773e+02
928             	3.00383773e+02
929             	3.00383774e+02
930             	3.00383775e+02
931             	3.00383775e+02
932             	3.00383776e+02
933             	3.00383776e+02