# Region        : cellZone component_4
# Cells         : 298
# Volume        : 6.22562037e-01
# Time          	volAverage(T)
1               	3.00158380e+02
2               	3.00315694e+02
3               	3.00465651e+02
4               	3.00610791e+02
5               	3.00752877e+02
6               	3.00892698e+02
7               	3.01030538e+02
8               	3.01166752e+02
9               	3.01301598e+02
10              	3.01435274e+02
11              	3.01567878e+02
12              	3.01700192e+02
13              	3.01831678e+02
14              	3.01962251e+02
15              	3.02089491e+02
16              	3.02215212e+02
17              	3.02341012e+02
18              	3.02464430e+02
19              	3.02586102e+02
20              	3.02705501e+02
21              	3.02823102e+02
22              	3.02938612e+02
23              	3.03052152e+02
24              	3.03163832e+02
25              	3.03275037e+02
26              	3.03385048e+02
27              	3.03494385e+02
28              	3.03603399e+02
29              	3.03713989e+02
30              	3.03825453e+02
31              	3.03937280e+02
32              	3.04049556e+02
33              	3.04160592e+02
34              	3.04270258e+02
35              	3.04377909e+02
36              	3.04483412e+02
37              	3.04586854e+02
38              	3.04687822e+02
39              	3.04786184e+02
40              	3.04881523e+02
41              	3.04974945e+02
42              	3.05067326e+02
43              	3.05159904e+02
44              	3.05254281e+02
45              	3.05348595e+02
46              	3.05440312e+02
47              	3.05526015e+02
48              	3.05608053e+02
49              	3.05690703e+02
50              	3.05772308e+02
51              	3.05851593e+02
52              	3.05929962e+02
53              	3.06006045e+02
54              	3.06079933e+02
55              	3.06152144e+02
56              	3.06225417e+02
57              	3.06299067e+02
58              	3.06371899e+02
59              	3.06444467e+02
60              	3.06517259e+02
61              	3.06587314e+02
62              	3.06659131e+02
63              	3.06729827e+02
64              	3.06798731e+02
65              	3.06865122e+02
66              	3.06929835e+02
67              	3.06991820e+02
68              	3.07049526e+02
69              	3.07109137e+02
70              	3.07167805e+02
71              	3.07225472e+02
72              	3.07282180e+02
73              	3.07341256e+02
74              	3.07403578e+02
75              	3.07464146e+02
76              	3.07524060e+02
77              	3.07583872e+02
78              	3.07641436e+02
79              	3.07694225e+02
80              	3.07745116e+02
81              	3.07794742e+02
82              	3.07844891e+02
83              	3.07895253e+02
84              	3.07945282e+02
85              	3.07995750e+02
86              	3.08044088e+02
87              	3.08094868e+02
88              	3.08146091e+02
89              	3.08196670e+02
90              	3.08246669e+02
91              	3.08295956e+02
92              	3.08344758e+02
93              	3.08393583e+02
94              	3.08442749e+02
95              	3.08491173e+02
96              	3.08540059e+02
97              	3.08588765e+02
98              	3.08637727e+02
99              	3.08687668e+02
100             	3.08735498e+02
101             	3.08781374e+02
102             	3.08825437e+02
103             	3.08868575e+02
104             	3.08910109e+02
105             	3.08951471e+02
106             	3.08992161e+02
107             	3.09032770e+02
108             	3.09073041e+02
109             	3.09112712e+02
110             	3.09152213e+02
111             	3.09191640e+02
112             	3.09230953e+02
113             	3.09269819e+02
114             	3.09308607e+02
115             	3.09347012e+02
116             	3.09385312e+02
117             	3.09423338e+02
118             	3.09461202e+02
119             	3.09499274e+02
120             	3.09537500e+02
121             	3.09575490e+02
122             	3.09612914e+02
123             	3.09648824e+02
124             	3.09683602e+02
125             	3.09717006e+02
126             	3.09749370e+02
127             	3.09780542e+02
128             	3.09810409e+02
129             	3.09839756e+02
130             	3.09868619e+02
131             	3.09897178e+02
132             	3.09924896e+02
133             	3.09952912e+02
134             	3.09980543e+02
135             	3.10008857e+02
136             	3.10037323e+02
137             	3.10066243e+02
138             	3.10095569e+02
139             	3.10125028e+02
140             	3.10154211e+02
141             	3.10183351e+02
142             	3.10212058e+02
143             	3.10240298e+02
144             	3.10267807e+02
145             	3.10294446e+02
146             	3.10320725e+02
147             	3.10346684e+02
148             	3.10372243e+02
149             	3.10397619e+02
150             	3.10422194e+02
151             	3.10446569e+02
152             	3.10470741e+02
153             	3.10494658e+02
154             	3.10518714e+02
155             	3.10542489e+02
156             	3.10566057e+02
157             	3.10589520e+02
158             	3.10613028e+02
159             	3.10636499e+02
160             	3.10659944e+02
161             	3.10682801e+02
162             	3.10705240e+02
163             	3.10727429e+02
164             	3.10749457e+02
165             	3.10771146e+02
166             	3.10792389e+02
167             	3.10813418e+02
168             	3.10833972e+02
169             	3.10854569e+02
170             	3.10875409e+02
171             	3.10896307e+02
172             	3.10917273e+02
173             	3.10938017e+02
174             	3.10958375e+02
175             	3.10978475e+02
176             	3.10998565e+02
177             	3.11018417e+02
178             	3.11038272e+02
179             	3.11057756e+02
180             	3.11076488e+02
181             	3.11095226e+02
182             	3.11113764e+02
183             	3.11132100e+02
184             	3.11150219e+02
185             	3.11168102e+02
186             	3.11185845e+02
187             	3.11203165e+02
188             	3.11220277e+02
189             	3.11237385e+02
190             	3.11254363e+02
191             	3.11271148e+02
192             	3.11288099e+02
193             	3.11304578e+02
194             	3.11320671e+02
195             	3.11336674e+02
196             	3.11352917e+02
197             	3.11369114e+02
198             	3.11385317e+02
199             	3.11401538e+02
200             	3.11417416e+02
201             	3.11432408e+02
202             	3.11447149e+02
203             	3.11461908e+02
204             	3.11476654e+02
205             	3.11491002e+02
206             	3.11505096e+02
207             	3.11518982e+02
208             	3.11532478e+02
209             	3.11545781e+02
210             	3.11559069e+02
211             	3.11572050e+02
212             	3.11584861e+02
213             	3.11597899e+02
214             	3.11610637e+02
215             	3.11623360e+02
216             	3.11636083e+02
217             	3.11648615e+02
218             	3.11660928e+02
219             	3.11673174e+02
220             	3.11685159e+02
221             	3.11696940e+02
222             	3.11708654e+02
223             	3.11720112e+02
224             	3.11731331e+02
225             	3.11742598e+02
226             	3.11753645e+02
227             	3.11764627e+02
228             	3.11775347e+02
229             	3.11786083e+02
230             	3.11796875e+02
231             	3.11807747e+02
232             	3.11818463e+02
233             	3.11829092e+02
234             	3.11839810e+02
235             	3.11850451e+02
236             	3.11861103e+02
237             	3.11871677e+02
238             	3.11882061e+02
239             	3.11892248e+02
240             	3.11902370e+02
241             	3.11912185e+02
242             	3.11922000e+02
243             	3.11931949e+02
244             	3.11941814e+02
245             	3.11951658e+02
246             	3.11961538e+02
247             	3.11971194e+02
248             	3.11980722e+02
249             	3.11990029e+02
250             	3.11999106e+02
251             	3.12008109e+02
252             	3.12017091e+02
253             	3.12025920e+02
254             	3.12034646e+02
255             	3.12043312e+02
256             	3.12051719e+02
257             	3.12060174e+02
258             	3.12068641e+02
259             	3.12077045e+02
260             	3.12085387e+02
261             	3.12093747e+02
262             	3.12102048e+02
263             	3.12110280e+02
264             	3.12118554e+02
265             	3.12126701e+02
266             	3.12134759e+02
267             	3.12142811e+02
268             	3.12150684e+02
269             	3.12158522e+02
270             	3.12166076e+02
271             	3.12173667e+02
272             	3.12181325e+02
273             	3.12188773e+02
274             	3.12196054e+02
275             	3.12203284e+02
276             	3.12210327e+02
277             	3.12217273e+02
278             	3.12224019e+02
279             	3.12230717e+02
280             	3.12237449e+02
281             	3.12244006e+02
282             	3.12250528e+02
283             	3.12257034e+02
284             	3.12263383e+02
285             	3.12269666e+02
286             	3.12275964e+02
287             	3.12282149e+02
288             	3.12288288e+02
289             	3.12294471e+02
290             	3.12300459e+02
291             	3.12306434e+02
292             	3.12312383e+02
293             	3.12318320e+02
294             	3.12324279e+02
295             	3.12330127e+02
296             	3.12335882e+02
297             	3.12341660e+02
298             	3.12347347e+02
299             	3.12352999e+02
300             	3.12358589e+02
301             	3.12364141e+02
302             	3.12369677e+02
303             	3.12375077e+02
304             	3.12380415e+02
305             	3.12385791e+02
306             	3.12391099e+02
307             	3.12396439e+02
308             	3.12401713e+02
309             	3.12406975e+02
310             	3.12412238e+02
311             	3.12417426e+02
312             	3.12422607e+02
313             	3.12427833e+02
314             	3.12432973e+02
315             	3.12438094e+02
316             	3.12443187e+02
317             	3.12448299e+02
318             	3.12453397e+02
319             	3.12458416e+02
320             	3.12463420e+02
321             	3.12468418e+02
322             	3.12473310e+02
323             	3.12478157e+02
324             	3.12482947e+02
325             	3.12487726e+02
326             	3.12492478e+02
327             	3.12497146e+02
328             	3.12501783e+02
329             	3.12506424e+02
330             	3.12511012e+02
331             	3.12515567e+02
332             	3.12520075e+02
333             	3.12524543e+02
334             	3.12528958e+02
335             	3.12533273e+02
336             	3.12537540e+02
337             	3.12541834e+02
338             	3.12546026e+02
339             	3.12550158e+02
340             	3.12554225e+02
341             	3.12558253e+02
342             	3.12562240e+02
343             	3.12566162e+02
344             	3.12570063e+02
345             	3.12573928e+02
346             	3.12577702e+02
347             	3.12581449e+02
348             	3.12585189e+02
349             	3.12588900e+02
350             	3.12592564e+02
351             	3.12596161e+02
352             	3.12599721e+02
353             	3.12603223e+02
354             	3.12606644e+02
355             	3.12610018e+02
356             	3.12613385e+02
357             	3.12616732e+02
358             	3.12620070e+02
359             	3.12623367e+02
360             	3.12626657e+02
361             	3.12629949e+02
362             	3.12633207e+02
363             	3.12636460e+02
364             	3.12639719e+02
365             	3.12642978e+02
366             	3.12646207e+02
367             	3.12649380e+02
368             	3.12652534e+02
369             	3.12655662e+02
370             	3.12658742e+02
371             	3.12661805e+02
372             	3.12664868e+02
373             	3.12667945e+02
374             	3.12671035e+02
375             	3.12674097e+02
376             	3.12677158e+02
377             	3.12680215e+02
378             	3.12683246e+02
379             	3.12686267e+02
380             	3.12689295e+02
381             	3.12692359e+02
382             	3.12695443e+02
383             	3.12698507e+02
384             	3.12701542e+02
385             	3.12704581e+02
386             	3.12707611e+02
387             	3.12710619e+02
388             	3.12713607e+02
389             	3.12716575e+02
390             	3.12719482e+02
391             	3.12722348e+02
392             	3.12725180e+02
393             	3.12727961e+02
394             	3.12730697e+02
395             	3.12733403e+02
396             	3.12736097e+02
397             	3.12738799e+02
398             	3.12741564e+02
399             	3.12744309e+02
400             	3.12747054e+02
401             	3.12749750e+02
402             	3.12752426e+02
403             	3.12755080e+02
404             	3.12757719e+02
405             	3.12760345e+02
406             	3.12762930e+02
407             	3.12765477e+02
408             	3.12767961e+02
409             	3.12770366e+02
410             	3.12772729e+02
411             	3.12775045e+02
412             	3.12777329e+02
413             	3.12779611e+02
414             	3.12781857e+02
415             	3.12784083e+02
416             	3.12786311e+02
417             	3.12788489e+02
418             	3.12790614e+02
419             	3.12792678e+02
420             	3.12794688e+02
421             	3.12796660e+02
422             	3.12798558e+02
423             	3.12800440e+02
424             	3.12802309e+02
425             	3.12804154e+02
426             	3.12806012e+02
427             	3.12807845e+02
428             	3.12809666e+02
429             	3.12811488e+02
430             	3.12813264e+02
431             	3.12815035e+02
432             	3.12816818e+02
433             	3.12818599e+02
434             	3.12820388e+02
435             	3.12822188e+02
436             	3.12824005e+02
437             	3.12825842e+02
438             	3.12827670e+02
439             	3.12829507e+02
440             	3.12831328e+02
441             	3.12833111e+02
442             	3.12834890e+02
443             	3.12836682e+02
444             	3.12838475e+02
445             	3.12840287e+02
446             	3.12842058e+02
447             	3.12843851e+02
448             	3.12845651e+02
449             	3.12847424e+02
450             	3.12849210e+02
451             	3.12850980e+02
452             	3.12852735e+02
453             	3.12854509e+02
454             	3.12856268e+02
455             	3.12858049e+02
456             	3.12859845e+02
457             	3.12861630e+02
458             	3.12863410e+02
459             	3.12865204e+02
460             	3.12866995e+02
461             	3.12868787e+02
462             	3.12870562e+02
463             	3.12872351e+02
464             	3.12874136e+02
465             	3.12875879e+02
466             	3.12877623e+02
467             	3.12879336e+02
468             	3.12881013e+02
469             	3.12882677e+02
470             	3.12884299e+02
471             	3.12885927e+02
472             	3.12887550e+02
473             	3.12889141e+02
474             	3.12890726e+02
475             	3.12892299e+02
476             	3.12893844e+02
477             	3.12895386e+02
478             	3.12896880e+02
479             	3.12898372e+02
480             	3.12899856e+02
481             	3.12901288e+02
482             	3.12902708e+02
483             	3.12904107e+02
484             	3.12905465e+02
485             	3.12906817e+02
486             	3.12908130e+02
487             	3.12909441e+02
488             	3.12910733e+02
489             	3.12911986e+02
490             	3.12913225e+02
491             	3.12914451e+02
492             	3.12915636e+02
493             	3.12916807e+02
494             	3.12917942e+02
495             	3.12919074e+02
496             	3.12920184e+02
497             	3.12921261e+02
498             	3.12922328e+02
499             	3.12923383e+02
500             	3.12924440e+02
501             	3.12925504e+02
502             	3.12926543e+02
503             	3.12927577e+02
504             	3.12928601e+02
505             	3.12929605e+02
506             	3.12930604e+02
507             	3.12931604e+02
508             	3.12932608e+02
509             	3.12933622e+02
510             	3.12934635e+02
511             	3.12935661e+02
512             	3.12936688e+02
513             	3.12937696e+02
514             	3.12938707e+02
515             	3.12939706e+02
516             	3.12940705e+02
517             	3.12941719e+02
518             	3.12942733e+02
519             	3.12943761e+02
520             	3.12944791e+02
521             	3.12945818e+02
522             	3.12946864e+02
523             	3.12947921e+02
524             	3.12948984e+02
525             	3.12950048e+02
526             	3.12951109e+02
527             	3.12952189e+02
528             	3.12953270e+02
529             	3.12954346e+02
530             	3.12955427e+02
531             	3.12956527e+02
532             	3.12957626e+02
533             	3.12958713e+02
534             	3.12959793e+02
535             	3.12960898e+02
536             	3.12962000e+02
537             	3.12963079e+02
538             	3.12964154e+02
539             	3.12965226e+02
540             	3.12966276e+02
541             	3.12967320e+02
542             	3.12968346e+02
543             	3.12969385e+02
544             	3.12970419e+02
545             	3.12971470e+02
546             	3.12972472e+02
547             	3.12973439e+02
548             	3.12974381e+02
549             	3.12975310e+02
550             	3.12976200e+02
551             	3.12977089e+02
552             	3.12977967e+02
553             	3.12978835e+02
554             	3.12979697e+02
555             	3.12980544e+02
556             	3.12981378e+02
557             	3.12982195e+02
558             	3.12982969e+02
559             	3.12983722e+02
560             	3.12984441e+02
561             	3.12985132e+02
562             	3.12985799e+02
563             	3.12986442e+02
564             	3.12987055e+02
565             	3.12987648e+02
566             	3.12988223e+02
567             	3.12988805e+02
568             	3.12989379e+02
569             	3.12989945e+02
570             	3.12990518e+02
571             	3.12991095e+02
572             	3.12991672e+02
573             	3.12992249e+02
574             	3.12992833e+02
575             	3.12993428e+02
576             	3.12994016e+02
577             	3.12994597e+02
578             	3.12995174e+02
579             	3.12995740e+02
580             	3.12996275e+02
581             	3.12996789e+02
582             	3.12997279e+02
583             	3.12997800e+02
584             	3.12998340e+02
585             	3.12998905e+02
586             	3.12999481e+02
587             	3.13000074e+02
588             	3.13000665e+02
589             	3.13001265e+02
590             	3.13001869e+02
591             	3.13002495e+02
592             	3.13003138e+02
593             	3.13003807e+02
594             	3.13004503e+02
595             	3.13005226e+02
596             	3.13005953e+02
597             	3.13006686e+02
598             	3.13007405e+02
599             	3.13008144e+02
600             	3.13008883e+02
601             	3.13009635e+02
602             	3.13010389e+02
603             	3.13011135e+02
604             	3.13011859e+02
605             	3.13012585e+02
606             	3.13013303e+02
607             	3.13014022e+02
608             	3.13014735e+02
609             	3.13015450e+02
610             	3.13016158e+02
611             	3.13016866e+02
612             	3.13017562e+02
613             	3.13018239e+02
614             	3.13018894e+02
615             	3.13019541e+02
616             	3.13020166e+02
617             	3.13020774e+02
618             	3.13021369e+02
619             	3.13021955e+02
620             	3.13022525e+02
621             	3.13023085e+02
622             	3.13023638e+02
623             	3.13024197e+02
624             	3.13024718e+02
625             	3.13025210e+02
626             	3.13025678e+02
627             	3.13026131e+02
628             	3.13026566e+02
629             	3.13027023e+02
630             	3.13027445e+02
631             	3.13027855e+02
632             	3.13028247e+02
633             	3.13028634e+02
634             	3.13028997e+02
635             	3.13029346e+02
636             	3.13029668e+02
637             	3.13029971e+02
638             	3.13030255e+02
639             	3.13030538e+02
640             	3.13030823e+02
641             	3.13031110e+02
642             	3.13031360e+02
643             	3.13031623e+02
644             	3.13031899e+02
645             	3.13032181e+02
646             	3.13032468e+02
647             	3.13032782e+02
648             	3.13033109e+02
649             	3.13033439e+02
650             	3.13033775e+02
651             	3.13034115e+02
652             	3.13034443e+02
653             	3.13034772e+02
654             	3.13035123e+02
655             	3.13035476e+02
656             	3.13035844e+02
657             	3.13036226e+02
658             	3.13036594e+02
659             	3.13036969e+02
660             	3.13037339e+02
661             	3.13037727e+02
662             	3.13038134e+02
663             	3.13038532e+02
664             	3.13038958e+02
665             	3.13039405e+02
666             	3.13039858e+02
667             	3.13040292e+02
668             	3.13040725e+02
669             	3.13041151e+02
670             	3.13041563e+02
671             	3.13041968e+02
672             	3.13042357e+02
673             	3.13042756e+02
674             	3.13043160e+02
675             	3.13043587e+02
676             	3.13044024e+02
677             	3.13044442e+02
678             	3.13044859e+02
679             	3.13045302e+02
680             	3.13045754e+02
681             	3.13046222e+02
682             	3.13046708e+02
683             	3.13047202e+02
684             	3.13047685e+02
685             	3.13048165e+02
686             	3.13048646e+02
687             	3.13049119e+02
688             	3.13049542e+02
689             	3.13049953e+02
690             	3.13050340e+02
691             	3.13050709e+02
692             	3.13051071e+02
693             	3.13051430e+02
694             	3.13051780e+02
695             	3.13052135e+02
696             	3.13052465e+02
697             	3.13052767e+02
698             	3.13053056e+02
699             	3.13053324e+02
700             	3.13053559e+02
701             	3.13053786e+02
702             	3.13054007e+02
703             	3.13054207e+02
704             	3.13054389e+02
705             	3.13054561e+02
706             	3.13054720e+02
707             	3.13054873e+02
708             	3.13055038e+02
709             	3.13055191e+02
710             	3.13055339e+02
711             	3.13055494e+02
712             	3.13055659e+02
713             	3.13055815e+02
714             	3.13055944e+02
715             	3.13056073e+02
716             	3.13056204e+02
717             	3.13056325e+02
718             	3.13056433e+02
719             	3.13056552e+02
720             	3.13056677e+02
721             	3.13056814e+02
722             	3.13056953e+02
723             	3.13057093e+02
724             	3.13057230e+02
725             	3.13057374e+02
726             	3.13057519e+02
727             	3.13057670e+02
728             	3.13057814e+02
729             	3.13057956e+02
730             	3.13058113e+02
731             	3.13058295e+02
732             	3.13058488e+02
733             	3.13058696e+02
734             	3.13058917e+02
735             	3.13059148e+02
736             	3.13059389e+02
737             	3.13059633e+02
738             	3.13059895e+02
739             	3.13060174e+02
740             	3.13060467e+02
741             	3.13060774e+02
742             	3.13061086e+02
743             	3.13061400e+02
744             	3.13061718e+02
745             	3.13062037e+02
746             	3.13062368e+02
747             	3.13062680e+02
748             	3.13062998e+02
749             	3.13063328e+02
750             	3.13063661e+02
751             	3.13064002e+02
752             	3.13064344e+02
753             	3.13064684e+02
754             	3.13064999e+02
755             	3.13065306e+02
756             	3.13065597e+02
757             	3.13065875e+02
758             	3.13066129e+02
759             	3.13066376e+02
760             	3.13066613e+02
761             	3.13066856e+02
762             	3.13067103e+02
763             	3.13067330e+02
764             	3.13067534e+02
765             	3.13067727e+02
766             	3.13067928e+02
767             	3.13068123e+02
768             	3.13068303e+02
769             	3.13068470e+02
770             	3.13068630e+02
771             	3.13068789e+02
772             	3.13068944e+02
773             	3.13069075e+02
774             	3.13069210e+02
775             	3.13069340e+02
776             	3.13069454e+02
777             	3.13069548e+02
778             	3.13069641e+02
779             	3.13069721e+02
780             	3.13069805e+02
781             	3.13069872e+02
782             	3.13069924e+02
783             	3.13069971e+02
784             	3.13070020e+02
785             	3.13070066e+02
786             	3.13070116e+02
787             	3.13070169e+02
788             	3.13070229e+02
789             	3.13070296e+02
790             	3.13070367e+02
791             	3.13070445e+02
792             	3.13070525e+02
793             	3.13070601e+02
794             	3.13070675e+02
795             	3.13070746e+02
796             	3.13070806e+02
797             	3.13070853e+02
798             	3.13070904e+02
799             	3.13070959e+02
800             	3.13071022e+02
801             	3.13071097e+02
802             	3.13071179e+02
803             	3.13071289e+02
804             	3.13071409e+02
805             	3.13071544e+02
806             	3.13071691e+02
807             	3.13071852e+02
808             	3.13072023e+02
809             	3.13072220e+02
810             	3.13072438e+02
811             	3.13072673e+02
812             	3.13072914e+02
813             	3.13073159e+02
814             	3.13073408e+02
815             	3.13073682e+02
816             	3.13073959e+02
817             	3.13074225e+02
818             	3.13074452e+02
819             	3.13074690e+02
820             	3.13074939e+02
821             	3.13075175e+02
822             	3.13075402e+02
823             	3.13075645e+02
824             	3.13075894e+02
825             	3.13076142e+02
826             	3.13076386e+02
827             	3.13076614e+02
828             	3.13076834e+02
829             	3.13077041e+02
830             	3.13077256e+02
831             	3.13077450e+02
832             	3.13077626e+02
833             	3.13077778e+02
834             	3.13077916e+02
835             	3.13078054e+02
836             	3.13078194e+02
837             	3.13078362e+02
838             	3.13078511e+02
839             	3.13078648e+02
840             	3.13078785e+02
841             	3.13078922e+02
842             	3.13079049e+02
843             	3.13079164e+02
844             	3.13079256e+02
845             	3.13079341e+02
846             	3.13079418e+02
847             	3.13079490e+02
848             	3.13079550e+02
849             	3.13079598e+02
850             	3.13079624e+02
851             	3.13079636e+02
852             	3.13079656e+02
853             	3.13079677e+02
854             	3.13079687e+02
855             	3.13079686e+02
856             	3.13079684e+02
857             	3.13079678e+02
858             	3.13079669e+02
859             	3.13079660e+02
860             	3.13079663e+02
861             	3.13079678e+02
862             	3.13079694e+02
863             	3.13079709e+02
864             	3.13079716e+02
865             	3.13079713e+02
866             	3.13079710e+02
867             	3.13079710e+02
868             	3.13079715e+02
869             	3.13079729e+02
870             	3.13079746e+02
871             	3.13079764e+02
872             	3.13079790e+02
873             	3.13079833e+02
874             	3.13079900e+02
875             	3.13079981e+02
876             	3.13080070e+02
877             	3.13080162e+02
878             	3.13080278e+02
879             	3.13080402e+02
880             	3.13080516e+02
881             	3.13080646e+02
882             	3.13080794e+02
883             	3.13080952e+02
884             	3.13081098e+02
885             	3.13081234e+02
886             	3.13081392e+02
887             	3.13081564e+02
888             	3.13081739e+02
889             	3.13081922e+02
890             	3.13082105e+02
891             	3.13082288e+02
892             	3.13082475e+02
893             	3.13082645e+02
894             	3.13082797e+02
895             	3.13082955e+02
896             	3.13083114e+02
897             	3.13083267e+02
898             	3.13083415e+02
899             	3.13083557e+02
900             	3.13083690e+02
901             	3.13083841e+02
902             	3.13083973e+02
903             	3.13084086e+02
904             	3.13084204e+02
905             	3.13084318e+02
906             	3.13084430e+02
907             	3.13084542e+02
908             	3.13084652e+02
909             	3.13084760e+02
910             	3.13084859e+02
911             	3.13084947e+02
912             	3.13085019e+02
913             	3.13085085e+02
914             	3.13085134e+02
915             	3.13085181e+02
916             	3.13085205e+02
917             	3.13085211e+02
918             	3.13085203e+02
919             	3.13085186e+02
920             	3.13085162e+02
921             	3.13085132e+02
922             	3.13085100e+02
923             	3.13085069e+02
924             	3.13085041e+02
925             	3.13085017e+02
926             	3.13084999e+02
927             	3.13084995e+02
928             	3.13084986e+02
929             	3.13084970e+02
930             	3.13084947e+02
931             	3.13084915e+02
932             	3.13084877e+02
933             	3.13084832e+02