# Region        : cellZone pcb
# Cells         : 467
# Volume        : 8.14770347e-01
# Time          	volAverage(T)
1               	3.00022907e+02
2               	3.00066493e+02
3               	3.00126585e+02
4               	3.00201437e+02
5               	3.00287078e+02
6               	3.00383719e+02
7               	3.00490396e+02
8               	3.00606691e+02
9               	3.00732557e+02
10              	3.00868008e+02
11              	3.01013045e+02
12              	3.01166838e+02
13              	3.01328290e+02
14              	3.01494376e+02
15              	3.01664025e+02
16              	3.01835732e+02
17              	3.02006568e+02
18              	3.02183270e+02
19              	3.02363153e+02
20              	3.02544447e+02
21              	3.02726523e+02
22              	3.02914736e+02
23              	3.03111703e+02
24              	3.03304943e+02
25              	3.03501130e+02
26              	3.03700398e+02
27              	3.03897782e+02
28              	3.04090587e+02
29              	3.04280553e+02
30              	3.04471789e+02
31              	3.04664289e+02
32              	3.04859439e+02
33              	3.05057803e+02
34              	3.05252095e+02
35              	3.05442135e+02
36              	3.05633492e+02
37              	3.05823123e+02
38              	3.06010502e+02
39              	3.06199799e+02
40              	3.06391712e+02
41              	3.06573566e+02
42              	3.06747860e+02
43              	3.06922473e+02
44              	3.07097524e+02
45              	3.07267128e+02
46              	3.07426490e+02
47              	3.07597420e+02
48              	3.07768100e+02
49              	3.07946646e+02
50              	3.08117150e+02
51              	3.08277217e+02
52              	3.08439802e+02
53              	3.08608243e+02
54              	3.08769863e+02
55              	3.08922696e+02
56              	3.09071108e+02
57              	3.09217684e+02
58              	3.09358613e+02
59              	3.09503706e+02
60              	3.09648103e+02
61              	3.09789462e+02
62              	3.09922048e+02
63              	3.10055964e+02
64              	3.10187359e+02
65              	3.10315752e+02
66              	3.10442611e+02
67              	3.10566787e+02
68              	3.10685196e+02
69              	3.10801859e+02
70              	3.10918542e+02
71              	3.11038728e+02
72              	3.11158212e+02
73              	3.11270583e+02
74              	3.11374897e+02
75              	3.11478882e+02
76              	3.11578002e+02
77              	3.11683671e+02
78              	3.11795401e+02
79              	3.11908171e+02
80              	3.12010572e+02
81              	3.12102760e+02
82              	3.12190430e+02
83              	3.12273516e+02
84              	3.12361200e+02
85              	3.12446644e+02
86              	3.12526099e+02
87              	3.12608353e+02
88              	3.12690541e+02
89              	3.12772703e+02
90              	3.12849565e+02
91              	3.12939841e+02
92              	3.13031204e+02
93              	3.13112617e+02
94              	3.13184146e+02
95              	3.13252127e+02
96              	3.13333449e+02
97              	3.13411963e+02
98              	3.13478677e+02
99              	3.13538684e+02
100             	3.13595770e+02
101             	3.13649649e+02
102             	3.13701108e+02
103             	3.13759784e+02
104             	3.13826088e+02
105             	3.13889784e+02
106             	3.13953589e+02
107             	3.14006120e+02
108             	3.14068323e+02
109             	3.14129582e+02
110             	3.14186002e+02
111             	3.14237172e+02
112             	3.14287748e+02
113             	3.14329587e+02
114             	3.14373940e+02
115             	3.14427540e+02
116             	3.14473493e+02
117             	3.14510515e+02
118             	3.14544391e+02
119             	3.14568652e+02
120             	3.14602562e+02
121             	3.14633006e+02
122             	3.14662128e+02
123             	3.14689538e+02
124             	3.14725413e+02
125             	3.14758554e+02
126             	3.14785272e+02
127             	3.14813840e+02
128             	3.14852211e+02
129             	3.14888719e+02
130             	3.14921550e+02
131             	3.14945444e+02
132             	3.14973625e+02
133             	3.14998795e+02
134             	3.15019496e+02
135             	3.15038599e+02
136             	3.15065754e+02
137             	3.15088723e+02
138             	3.15110181e+02
139             	3.15132336e+02
140             	3.15160629e+02
141             	3.15190439e+02
142             	3.15218833e+02
143             	3.15240468e+02
144             	3.15258612e+02
145             	3.15282544e+02
146             	3.15290052e+02
147             	3.15298657e+02
148             	3.15316125e+02
149             	3.15348807e+02
150             	3.15371603e+02
151             	3.15390496e+02
152             	3.15406163e+02
153             	3.15430297e+02
154             	3.15467001e+02
155             	3.15502422e+02
156             	3.15533594e+02
157             	3.15549508e+02
158             	3.15570319e+02
159             	3.15580621e+02
160             	3.15580339e+02
161             	3.15585409e+02
162             	3.15600442e+02
163             	3.15620003e+02
164             	3.15642745e+02
165             	3.15666854e+02
166             	3.15691703e+02
167             	3.15724429e+02
168             	3.15758170e+02
169             	3.15788523e+02
170             	3.15820743e+02
171             	3.15856876e+02
172             	3.15898779e+02
173             	3.15937909e+02
174             	3.15963113e+02
175             	3.15983407e+02
176             	3.16008111e+02
177             	3.16031981e+02
178             	3.16052336e+02
179             	3.16078840e+02
180             	3.16114592e+02
181             	3.16149422e+02
182             	3.16179373e+02
183             	3.16208666e+02
184             	3.16238589e+02
185             	3.16281966e+02
186             	3.16320518e+02
187             	3.16350560e+02
188             	3.16370606e+02
189             	3.16396012e+02
190             	3.16418403e+02
191             	3.16443711e+02
192             	3.16476370e+02
193             	3.16513424e+02
194             	3.16546523e+02
195             	3.16578456e+02
196             	3.16608693e+02
197             	3.16645239e+02
198             	3.16688170e+02
199             	3.16731434e+02
200             	3.16770705e+02
201             	3.16805983e+02
202             	3.16830106e+02
203             	3.16851827e+02
204             	3.16875161e+02
205             	3.16903823e+02
206             	3.16938060e+02
207             	3.16971031e+02
208             	3.17000445e+02
209             	3.17032079e+02
210             	3.17072842e+02
211             	3.17110932e+02
212             	3.17140074e+02
213             	3.17171992e+02
214             	3.17198899e+02
215             	3.17224028e+02
216             	3.17246788e+02
217             	3.17270055e+02
218             	3.17299428e+02
219             	3.17331510e+02
220             	3.17352960e+02
221             	3.17368949e+02
222             	3.17391284e+02
223             	3.17425540e+02
224             	3.17449420e+02
225             	3.17462896e+02
226             	3.17477146e+02
227             	3.17493563e+02
228             	3.17505896e+02
229             	3.17519346e+02
230             	3.17536982e+02
231             	3.17559999e+02
232             	3.17580607e+02
233             	3.17596639e+02
234             	3.17615009e+02
235             	3.17638395e+02
236             	3.17672920e+02
237             	3.17701791e+02
238             	3.17714434e+02
239             	3.17735831e+02
240             	3.17749336e+02
241             	3.17765100e+02
242             	3.17778457e+02
243             	3.17793469e+02
244             	3.17806533e+02
245             	3.17820656e+02
246             	3.17837879e+02
247             	3.17851872e+02
248             	3.17871629e+02
249             	3.17888478e+02
250             	3.17893806e+02
251             	3.17914921e+02
252             	3.17931018e+02
253             	3.17952156e+02
254             	3.17965711e+02
255             	3.17969649e+02
256             	3.17986498e+02
257             	3.18009818e+02
258             	3.18024348e+02
259             	3.18032140e+02
260             	3.18046031e+02
261             	3.18068827e+02
262             	3.18092189e+02
263             	3.18097415e+02
264             	3.18102182e+02
265             	3.18109260e+02
266             	3.18106402e+02
267             	3.18105673e+02
268             	3.18108638e+02
269             	3.18117802e+02
270             	3.18129387e+02
271             	3.18130974e+02
272             	3.18128819e+02
273             	3.18132278e+02
274             	3.18133774e+02
275             	3.18117261e+02
276             	3.18116362e+02
277             	3.18112013e+02
278             	3.18113423e+02
279             	3.18107675e+02
280             	3.18106215e+02
281             	3.18114474e+02
282             	3.18128344e+02
283             	3.18142638e+02
284             	3.18154852e+02
285             	3.18172028e+02
286             	3.18185058e+02
287             	3.18183446e+02
288             	3.18173700e+02
289             	3.18176338e+02
290             	3.18180406e+02
291             	3.18178617e+02
292             	3.18185681e+02
293             	3.18199380e+02
294             	3.18221373e+02
295             	3.18248356e+02
296             	3.18267765e+02
297             	3.18285321e+02
298             	3.18297526e+02
299             	3.18302122e+02
300             	3.18296917e+02
301             	3.18288832e+02
302             	3.18290630e+02
303             	3.18296206e+02
304             	3.18306173e+02
305             	3.18311361e+02
306             	3.18321725e+02
307             	3.18336351e+02
308             	3.18347876e+02
309             	3.18358242e+02
310             	3.18373184e+02
311             	3.18395385e+02
312             	3.18416073e+02
313             	3.18436679e+02
314             	3.18455364e+02
315             	3.18473159e+02
316             	3.18483559e+02
317             	3.18494535e+02
318             	3.18503259e+02
319             	3.18502628e+02
320             	3.18510477e+02
321             	3.18519819e+02
322             	3.18532164e+02
323             	3.18547972e+02
324             	3.18568070e+02
325             	3.18584788e+02
326             	3.18601995e+02
327             	3.18617683e+02
328             	3.18631650e+02
329             	3.18645236e+02
330             	3.18659282e+02
331             	3.18671109e+02
332             	3.18685922e+02
333             	3.18696380e+02
334             	3.18704346e+02
335             	3.18713567e+02
336             	3.18722160e+02
337             	3.18731788e+02
338             	3.18743532e+02
339             	3.18757532e+02
340             	3.18771798e+02
341             	3.18786724e+02
342             	3.18805859e+02
343             	3.18825738e+02
344             	3.18845264e+02
345             	3.18865260e+02
346             	3.18883955e+02
347             	3.18900086e+02
348             	3.18912132e+02
349             	3.18921968e+02
350             	3.18931611e+02
351             	3.18942627e+02
352             	3.18955035e+02
353             	3.18968560e+02
354             	3.18983187e+02
355             	3.18999074e+02
356             	3.19016299e+02
357             	3.19034216e+02
358             	3.19051898e+02
359             	3.19068601e+02
360             	3.19084362e+02
361             	3.19099544e+02
362             	3.19114739e+02
363             	3.19129393e+02
364             	3.19143449e+02
365             	3.19156706e+02
366             	3.19171010e+02
367             	3.19185018e+02
368             	3.19198081e+02
369             	3.19211154e+02
370             	3.19224563e+02
371             	3.19238816e+02
372             	3.19253355e+02
373             	3.19268941e+02
374             	3.19285507e+02
375             	3.19302394e+02
376             	3.19319085e+02
377             	3.19335276e+02
378             	3.19350302e+02
379             	3.19365539e+02
380             	3.19379234e+02
381             	3.19390704e+02
382             	3.19401812e+02
383             	3.19413255e+02
384             	3.19425373e+02
385             	3.19438441e+02
386             	3.19452166e+02
387             	3.19466101e+02
388             	3.19480049e+02
389             	3.19493940e+02
390             	3.19507698e+02
391             	3.19522090e+02
392             	3.19535658e+02
393             	3.19547504e+02
394             	3.19557834e+02
395             	3.19567845e+02
396             	3.19578007e+02
397             	3.19588552e+02
398             	3.19599570e+02
399             	3.19610891e+02
400             	3.19622379e+02
401             	3.19634192e+02
402             	3.19646099e+02
403             	3.19657640e+02
404             	3.19669335e+02
405             	3.19681027e+02
406             	3.19691394e+02
407             	3.19700874e+02
408             	3.19710011e+02
409             	3.19719140e+02
410             	3.19728635e+02
411             	3.19738372e+02
412             	3.19748291e+02
413             	3.19758318e+02
414             	3.19768483e+02
415             	3.19778899e+02
416             	3.19789019e+02
417             	3.19798957e+02
418             	3.19809200e+02
419             	3.19818337e+02
420             	3.19826326e+02
421             	3.19833784e+02
422             	3.19841418e+02
423             	3.19849605e+02
424             	3.19857819e+02
425             	3.19866455e+02
426             	3.19875277e+02
427             	3.19884529e+02
428             	3.19893653e+02
429             	3.19902574e+02
430             	3.19911327e+02
431             	3.19919611e+02
432             	3.19926894e+02
433             	3.19933389e+02
434             	3.19939718e+02
435             	3.19946382e+02
436             	3.19953372e+02
437             	3.19960861e+02
438             	3.19968404e+02
439             	3.19976036e+02
440             	3.19983794e+02
441             	3.19991576e+02
442             	3.19999050e+02
443             	3.20006103e+02
444             	3.20012792e+02
445             	3.20018840e+02
446             	3.20024338e+02
447             	3.20029571e+02
448             	3.20035030e+02
449             	3.20040832e+02
450             	3.20047079e+02
451             	3.20053406e+02
452             	3.20059770e+02
453             	3.20066242e+02
454             	3.20072921e+02
455             	3.20079587e+02
456             	3.20085811e+02
457             	3.20091351e+02
458             	3.20096524e+02
459             	3.20101430e+02
460             	3.20106050e+02
461             	3.20110523e+02
462             	3.20115014e+02
463             	3.20119762e+02
464             	3.20124808e+02
465             	3.20130007e+02
466             	3.20135124e+02
467             	3.20140300e+02
468             	3.20145390e+02
469             	3.20150389e+02
470             	3.20155117e+02
471             	3.20159505e+02
472             	3.20163733e+02
473             	3.20167797e+02
474             	3.20171818e+02
475             	3.20175838e+02
476             	3.20179998e+02
477             	3.20184298e+02
478             	3.20188720e+02
479             	3.20193109e+02
480             	3.20197524e+02
481             	3.20201924e+02
482             	3.20206217e+02
483             	3.20210345e+02
484             	3.20214131e+02
485             	3.20217703e+02
486             	3.20221188e+02
487             	3.20224457e+02
488             	3.20227642e+02
489             	3.20230894e+02
490             	3.20234344e+02
491             	3.20237972e+02
492             	3.20241709e+02
493             	3.20245419e+02
494             	3.20249143e+02
495             	3.20252696e+02
496             	3.20256219e+02
497             	3.20259524e+02
498             	3.20262589e+02
499             	3.20265445e+02
500             	3.20268118e+02
501             	3.20270773e+02
502             	3.20273346e+02
503             	3.20276039e+02
504             	3.20278785e+02
505             	3.20281631e+02
506             	3.20284669e+02
507             	3.20287725e+02
508             	3.20290760e+02
509             	3.20293761e+02
510             	3.20296551e+02
511             	3.20299119e+02
512             	3.20301651e+02
513             	3.20303975e+02
514             	3.20306123e+02
515             	3.20308317e+02
516             	3.20310620e+02
517             	3.20313098e+02
518             	3.20315589e+02
519             	3.20318163e+02
520             	3.20320776e+02
521             	3.20323283e+02
522             	3.20325712e+02
523             	3.20327898e+02
524             	3.20329923e+02
525             	3.20331791e+02
526             	3.20333531e+02
527             	3.20335264e+02
528             	3.20336994e+02
529             	3.20338886e+02
530             	3.20341045e+02
531             	3.20343206e+02
532             	3.20345580e+02
533             	3.20347930e+02
534             	3.20350178e+02
535             	3.20352296e+02
536             	3.20354075e+02
537             	3.20355662e+02
538             	3.20356977e+02
539             	3.20358212e+02
540             	3.20359525e+02
541             	3.20360878e+02
542             	3.20362471e+02
543             	3.20364268e+02
544             	3.20366060e+02
545             	3.20368213e+02
546             	3.20370391e+02
547             	3.20372434e+02
548             	3.20374312e+02
549             	3.20376263e+02
550             	3.20377999e+02
551             	3.20379264e+02
552             	3.20380237e+02
553             	3.20381167e+02
554             	3.20382228e+02
555             	3.20383716e+02
556             	3.20385492e+02
557             	3.20387208e+02
558             	3.20389129e+02
559             	3.20390871e+02
560             	3.20392679e+02
561             	3.20394364e+02
562             	3.20395726e+02
563             	3.20396912e+02
564             	3.20397422e+02
565             	3.20397337e+02
566             	3.20397077e+02
567             	3.20397056e+02
568             	3.20397577e+02
569             	3.20398383e+02
570             	3.20399455e+02
571             	3.20401133e+02
572             	3.20402891e+02
573             	3.20404698e+02
574             	3.20406368e+02
575             	3.20407632e+02
576             	3.20408642e+02
577             	3.20409454e+02
578             	3.20409632e+02
579             	3.20409555e+02
580             	3.20409739e+02
581             	3.20410182e+02
582             	3.20410798e+02
583             	3.20412124e+02
584             	3.20413468e+02
585             	3.20414834e+02
586             	3.20416211e+02
587             	3.20417416e+02
588             	3.20418617e+02
589             	3.20419835e+02
590             	3.20420453e+02
591             	3.20420268e+02
592             	3.20419419e+02
593             	3.20418679e+02
594             	3.20418622e+02
595             	3.20419316e+02
596             	3.20420095e+02
597             	3.20420946e+02
598             	3.20422120e+02
599             	3.20423226e+02
600             	3.20424045e+02
601             	3.20424970e+02
602             	3.20425154e+02
603             	3.20424746e+02
604             	3.20424127e+02
605             	3.20423794e+02
606             	3.20423660e+02
607             	3.20423754e+02
608             	3.20423857e+02
609             	3.20424691e+02
610             	3.20425808e+02
611             	3.20427329e+02
612             	3.20428730e+02
613             	3.20429578e+02
614             	3.20429990e+02
615             	3.20430219e+02
616             	3.20429946e+02
617             	3.20429463e+02
618             	3.20429034e+02
619             	3.20429009e+02
620             	3.20429154e+02
621             	3.20429779e+02
622             	3.20430313e+02
623             	3.20430860e+02
624             	3.20431399e+02
625             	3.20431541e+02
626             	3.20431394e+02
627             	3.20431416e+02
628             	3.20431266e+02
629             	3.20431118e+02
630             	3.20430725e+02
631             	3.20430425e+02
632             	3.20430605e+02
633             	3.20430986e+02
634             	3.20431690e+02
635             	3.20432355e+02
636             	3.20432932e+02
637             	3.20433642e+02
638             	3.20434418e+02
639             	3.20435051e+02
640             	3.20435346e+02
641             	3.20435238e+02
642             	3.20434643e+02
643             	3.20434163e+02
644             	3.20433862e+02
645             	3.20433879e+02
646             	3.20434184e+02
647             	3.20434578e+02
648             	3.20434805e+02
649             	3.20435310e+02
650             	3.20435825e+02
651             	3.20436183e+02
652             	3.20436490e+02
653             	3.20436698e+02
654             	3.20436520e+02
655             	3.20435642e+02
656             	3.20434903e+02
657             	3.20434426e+02
658             	3.20434506e+02
659             	3.20435142e+02
660             	3.20435861e+02
661             	3.20436592e+02
662             	3.20437224e+02
663             	3.20439262e+02
664             	3.20441107e+02
665             	3.20440978e+02
666             	3.20439250e+02
667             	3.20437944e+02
668             	3.20437448e+02
669             	3.20437715e+02
670             	3.20438930e+02
671             	3.20440137e+02
672             	3.20440805e+02
673             	3.20441224e+02
674             	3.20441704e+02
675             	3.20441994e+02
676             	3.20443199e+02
677             	3.20444208e+02
678             	3.20443185e+02
679             	3.20440892e+02
680             	3.20438399e+02
681             	3.20436880e+02
682             	3.20436422e+02
683             	3.20436789e+02
684             	3.20437398e+02
685             	3.20438062e+02
686             	3.20439027e+02
687             	3.20440467e+02
688             	3.20442048e+02
689             	3.20443282e+02
690             	3.20443771e+02
691             	3.20443350e+02
692             	3.20441863e+02
693             	3.20440220e+02
694             	3.20438875e+02
695             	3.20438147e+02
696             	3.20437865e+02
697             	3.20438223e+02
698             	3.20438992e+02
699             	3.20439962e+02
700             	3.20441023e+02
701             	3.20441793e+02
702             	3.20444205e+02
703             	3.20445486e+02
704             	3.20444395e+02
705             	3.20442306e+02
706             	3.20440324e+02
707             	3.20439174e+02
708             	3.20439106e+02
709             	3.20439660e+02
710             	3.20440462e+02
711             	3.20441290e+02
712             	3.20441666e+02
713             	3.20442102e+02
714             	3.20442511e+02
715             	3.20442939e+02
716             	3.20442811e+02
717             	3.20441966e+02
718             	3.20440828e+02
719             	3.20439480e+02
720             	3.20438086e+02
721             	3.20437063e+02
722             	3.20436530e+02
723             	3.20436390e+02
724             	3.20436694e+02
725             	3.20437359e+02
726             	3.20438898e+02
727             	3.20440427e+02
728             	3.20441649e+02
729             	3.20442057e+02
730             	3.20441652e+02
731             	3.20440946e+02
732             	3.20439999e+02
733             	3.20438848e+02
734             	3.20437780e+02
735             	3.20437210e+02
736             	3.20437014e+02
737             	3.20437413e+02
738             	3.20437998e+02
739             	3.20438873e+02
740             	3.20439923e+02
741             	3.20440857e+02
742             	3.20441461e+02
743             	3.20441682e+02
744             	3.20441619e+02
745             	3.20441266e+02
746             	3.20440739e+02
747             	3.20439964e+02
748             	3.20439167e+02
749             	3.20438732e+02
750             	3.20438680e+02
751             	3.20438907e+02
752             	3.20439237e+02
753             	3.20439656e+02
754             	3.20440118e+02
755             	3.20440443e+02
756             	3.20440526e+02
757             	3.20440425e+02
758             	3.20440185e+02
759             	3.20439735e+02
760             	3.20439203e+02
761             	3.20438864e+02
762             	3.20438546e+02
763             	3.20438223e+02
764             	3.20438016e+02
765             	3.20438101e+02
766             	3.20438272e+02
767             	3.20438654e+02
768             	3.20439186e+02
769             	3.20439859e+02
770             	3.20440493e+02
771             	3.20440923e+02
772             	3.20441030e+02
773             	3.20441052e+02
774             	3.20441071e+02
775             	3.20441018e+02
776             	3.20440874e+02
777             	3.20440704e+02
778             	3.20440635e+02
779             	3.20440868e+02
780             	3.20441240e+02
781             	3.20441698e+02
782             	3.20442176e+02
783             	3.20442677e+02
784             	3.20443107e+02
785             	3.20443434e+02
786             	3.20443723e+02
787             	3.20443870e+02
788             	3.20443856e+02
789             	3.20443794e+02
790             	3.20443742e+02
791             	3.20443624e+02
792             	3.20443511e+02
793             	3.20443482e+02
794             	3.20443525e+02
795             	3.20443634e+02
796             	3.20443897e+02
797             	3.20444356e+02
798             	3.20444916e+02
799             	3.20445523e+02
800             	3.20446034e+02
801             	3.20446410e+02
802             	3.20446623e+02
803             	3.20446701e+02
804             	3.20446692e+02
805             	3.20446593e+02
806             	3.20446444e+02
807             	3.20446199e+02
808             	3.20446051e+02
809             	3.20446059e+02
810             	3.20446197e+02
811             	3.20446467e+02
812             	3.20446823e+02
813             	3.20447197e+02
814             	3.20447580e+02
815             	3.20447953e+02
816             	3.20448301e+02
817             	3.20448580e+02
818             	3.20448744e+02
819             	3.20448843e+02
820             	3.20448862e+02
821             	3.20448840e+02
822             	3.20448821e+02
823             	3.20448877e+02
824             	3.20449029e+02
825             	3.20449269e+02
826             	3.20449559e+02
827             	3.20449861e+02
828             	3.20450209e+02
829             	3.20450573e+02
830             	3.20450897e+02
831             	3.20451166e+02
832             	3.20451347e+02
833             	3.20451450e+02
834             	3.20451492e+02
835             	3.20451496e+02
836             	3.20451495e+02
837             	3.20451479e+02
838             	3.20451485e+02
839             	3.20451526e+02
840             	3.20451631e+02
841             	3.20451820e+02
842             	3.20452070e+02
843             	3.20452327e+02
844             	3.20452624e+02
845             	3.20452889e+02
846             	3.20453086e+02
847             	3.20453210e+02
848             	3.20453272e+02
849             	3.20453339e+02
850             	3.20453360e+02
851             	3.20453378e+02
852             	3.20453381e+02
853             	3.20453378e+02
854             	3.20453388e+02
855             	3.20453454e+02
856             	3.20453557e+02
857             	3.20453670e+02
858             	3.20453807e+02
859             	3.20454048e+02
860             	3.20454394e+02
861             	3.20454767e+02
862             	3.20455114e+02
863             	3.20455405e+02
864             	3.20455611e+02
865             	3.20455753e+02
866             	3.20455841e+02
867             	3.20455869e+02
868             	3.20455881e+02
869             	3.20455905e+02
870             	3.20455929e+02
871             	3.20455962e+02
872             	3.20456022e+02
873             	3.20456071e+02
874             	3.20456133e+02
875             	3.20456195e+02
876             	3.20456278e+02
877             	3.20456387e+02
878             	3.20456538e+02
879             	3.20456706e+02
880             	3.20456883e+02
881             	3.20457085e+02
882             	3.20457316e+02
883             	3.20457555e+02
884             	3.20457764e+02
885             	3.20457940e+02
886             	3.20458083e+02
887             	3.20458186e+02
888             	3.20458280e+02
889             	3.20458363e+02
890             	3.20458436e+02
891             	3.20458514e+02
892             	3.20458613e+02
893             	3.20458716e+02
894             	3.20458823e+02
895             	3.20458944e+02
896             	3.20459078e+02
897             	3.20459227e+02
898             	3.20459377e+02
899             	3.20459501e+02
900             	3.20459602e+02
901             	3.20459675e+02
902             	3.20459721e+02
903             	3.20459769e+02
904             	3.20459818e+02
905             	3.20459873e+02
906             	3.20459937e+02
907             	3.20460020e+02
908             	3.20460146e+02
909             	3.20460279e+02
910             	3.20460418e+02
911             	3.20460556e+02
912             	3.20460689e+02
913             	3.20460803e+02
914             	3.20460884e+02
915             	3.20460947e+02
916             	3.20460999e+02
917             	3.20461038e+02
918             	3.20461070e+02
919             	3.20461126e+02
920             	3.20461218e+02
921             	3.20461330e+02
922             	3.20461432e+02
923             	3.20461535e+02
924             	3.20461636e+02
925             	3.20461727e+02
926             	3.20461788e+02
927             	3.20461825e+02
928             	3.20461861e+02
929             	3.20461889e+02
930             	3.20461922e+02
931             	3.20461959e+02
932             	3.20462009e+02
933             	3.20462073e+02