# Region        : cellZone pcb
# Cells         : 399
# Volume        : 7.04213120e-01
# Time          	volAverage(T)
1               	3.00008513e+02
2               	3.00025002e+02
3               	3.00048450e+02
4               	3.00078304e+02
5               	3.00111392e+02
6               	3.00148863e+02
7               	3.00190035e+02
8               	3.00234793e+02
9               	3.00285699e+02
10              	3.00340495e+02
11              	3.00396831e+02
12              	3.00454763e+02
13              	3.00517243e+02
14              	3.00584318e+02
15              	3.00655772e+02
16              	3.00726576e+02
17              	3.00798070e+02
18              	3.00871161e+02
19              	3.00946324e+02
20              	3.01023085e+02
21              	3.01100809e+02
22              	3.01179287e+02
23              	3.01258927e+02
24              	3.01339667e+02
25              	3.01421392e+02
26              	3.01505365e+02
27              	3.01589328e+02
28              	3.01672528e+02
29              	3.01756675e+02
30              	3.01842947e+02
31              	3.01930056e+02
32              	3.02016920e+02
33              	3.02103867e+02
34              	3.02190749e+02
35              	3.02273364e+02
36              	3.02354335e+02
37              	3.02433938e+02
38              	3.02518302e+02
39              	3.02600529e+02
40              	3.02680612e+02
41              	3.02759643e+02
42              	3.02838771e+02
43              	3.02918749e+02
44              	3.02999098e+02
45              	3.03078669e+02
46              	3.03159338e+02
47              	3.03240247e+02
48              	3.03321419e+02
49              	3.03400908e+02
50              	3.03478615e+02
51              	3.03554891e+02
52              	3.03632800e+02
53              	3.03706577e+02
54              	3.03775231e+02
55              	3.03840134e+02
56              	3.03910553e+02
57              	3.03978468e+02
58              	3.04048062e+02
59              	3.04113100e+02
60              	3.04174957e+02
61              	3.04237817e+02
62              	3.04302464e+02
63              	3.04366738e+02
64              	3.04430220e+02
65              	3.04493321e+02
66              	3.04557027e+02
67              	3.04618283e+02
68              	3.04680846e+02
69              	3.04741072e+02
70              	3.04797268e+02
71              	3.04849025e+02
72              	3.04896408e+02
73              	3.04942857e+02
74              	3.04989825e+02
75              	3.05036473e+02
76              	3.05084279e+02
77              	3.05133956e+02
78              	3.05183568e+02
79              	3.05231293e+02
80              	3.05277005e+02
81              	3.05322769e+02
82              	3.05367692e+02
83              	3.05412272e+02
84              	3.05457105e+02
85              	3.05496725e+02
86              	3.05537413e+02
87              	3.05575471e+02
88              	3.05610494e+02
89              	3.05647103e+02
90              	3.05684995e+02
91              	3.05725038e+02
92              	3.05765312e+02
93              	3.05804203e+02
94              	3.05842027e+02
95              	3.05880224e+02
96              	3.05916388e+02
97              	3.05948820e+02
98              	3.05980106e+02
99              	3.06014191e+02
100             	3.06044601e+02
101             	3.06071235e+02
102             	3.06097145e+02
103             	3.06127622e+02
104             	3.06157028e+02
105             	3.06184413e+02
106             	3.06213898e+02
107             	3.06243593e+02
108             	3.06272110e+02
109             	3.06299250e+02
110             	3.06326397e+02
111             	3.06351958e+02
112             	3.06376228e+02
113             	3.06402377e+02
114             	3.06423053e+02
115             	3.06441165e+02
116             	3.06461732e+02
117             	3.06482557e+02
118             	3.06504676e+02
119             	3.06527583e+02
120             	3.06551942e+02
121             	3.06576918e+02
122             	3.06601891e+02
123             	3.06626460e+02
124             	3.06650388e+02
125             	3.06674372e+02
126             	3.06697828e+02
127             	3.06719048e+02
128             	3.06734280e+02
129             	3.06749753e+02
130             	3.06763213e+02
131             	3.06779152e+02
132             	3.06795285e+02
133             	3.06812608e+02
134             	3.06831028e+02
135             	3.06851944e+02
136             	3.06872465e+02
137             	3.06892797e+02
138             	3.06911854e+02
139             	3.06930116e+02
140             	3.06948610e+02
141             	3.06966386e+02
142             	3.06979498e+02
143             	3.06990935e+02
144             	3.07001727e+02
145             	3.07013341e+02
146             	3.07026029e+02
147             	3.07039479e+02
148             	3.07054100e+02
149             	3.07069599e+02
150             	3.07086160e+02
151             	3.07102888e+02
152             	3.07118540e+02
153             	3.07133910e+02
154             	3.07148123e+02
155             	3.07161005e+02
156             	3.07172592e+02
157             	3.07184543e+02
158             	3.07196090e+02
159             	3.07205261e+02
160             	3.07214253e+02
161             	3.07224003e+02
162             	3.07235053e+02
163             	3.07247229e+02
164             	3.07260139e+02
165             	3.07274121e+02
166             	3.07287734e+02
167             	3.07300895e+02
168             	3.07315947e+02
169             	3.07329474e+02
170             	3.07342369e+02
171             	3.07354277e+02
172             	3.07366060e+02
173             	3.07377762e+02
174             	3.07385354e+02
175             	3.07392405e+02
176             	3.07399198e+02
177             	3.07406721e+02
178             	3.07414985e+02
179             	3.07424416e+02
180             	3.07434804e+02
181             	3.07446230e+02
182             	3.07458582e+02
183             	3.07470480e+02
184             	3.07481676e+02
185             	3.07492070e+02
186             	3.07502281e+02
187             	3.07513188e+02
188             	3.07520708e+02
189             	3.07526361e+02
190             	3.07531383e+02
191             	3.07536826e+02
192             	3.07543528e+02
193             	3.07551117e+02
194             	3.07559083e+02
195             	3.07567176e+02
196             	3.07576978e+02
197             	3.07586520e+02
198             	3.07596048e+02
199             	3.07604680e+02
200             	3.07612715e+02
201             	3.07619180e+02
202             	3.07624487e+02
203             	3.07629087e+02
204             	3.07633464e+02
205             	3.07638130e+02
206             	3.07643150e+02
207             	3.07648299e+02
208             	3.07654521e+02
209             	3.07660864e+02
210             	3.07667185e+02
211             	3.07673671e+02
212             	3.07680121e+02
213             	3.07686376e+02
214             	3.07692531e+02
215             	3.07698234e+02
216             	3.07703522e+02
217             	3.07708163e+02
218             	3.07712376e+02
219             	3.07716593e+02
220             	3.07721007e+02
221             	3.07725848e+02
222             	3.07731464e+02
223             	3.07737280e+02
224             	3.07742920e+02
225             	3.07748190e+02
226             	3.07753284e+02
227             	3.07758168e+02
228             	3.07762713e+02
229             	3.07767087e+02
230             	3.07771382e+02
231             	3.07775616e+02
232             	3.07779645e+02
233             	3.07783483e+02
234             	3.07787159e+02
235             	3.07790772e+02
236             	3.07794240e+02
237             	3.07797823e+02
238             	3.07801408e+02
239             	3.07805183e+02
240             	3.07808976e+02
241             	3.07812810e+02
242             	3.07816590e+02
243             	3.07820356e+02
244             	3.07823974e+02
245             	3.07827667e+02
246             	3.07831311e+02
247             	3.07834743e+02
248             	3.07838261e+02
249             	3.07841586e+02
250             	3.07844857e+02
251             	3.07848140e+02
252             	3.07851250e+02
253             	3.07854332e+02
254             	3.07857441e+02
255             	3.07860454e+02
256             	3.07863330e+02
257             	3.07865949e+02
258             	3.07868589e+02
259             	3.07871086e+02
260             	3.07873527e+02
261             	3.07876072e+02
262             	3.07878743e+02
263             	3.07881269e+02
264             	3.07884082e+02
265             	3.07886917e+02
266             	3.07889543e+02
267             	3.07892175e+02
268             	3.07894891e+02
269             	3.07897521e+02
270             	3.07900189e+02
271             	3.07902697e+02
272             	3.07905224e+02
273             	3.07907655e+02
274             	3.07909884e+02
275             	3.07912047e+02
276             	3.07914079e+02
277             	3.07916067e+02
278             	3.07917975e+02
279             	3.07919855e+02
280             	3.07921816e+02
281             	3.07923761e+02
282             	3.07925749e+02
283             	3.07927772e+02
284             	3.07929986e+02
285             	3.07932022e+02
286             	3.07934183e+02
287             	3.07936331e+02
288             	3.07938320e+02
289             	3.07940239e+02
290             	3.07942208e+02
291             	3.07943883e+02
292             	3.07945684e+02
293             	3.07947371e+02
294             	3.07948871e+02
295             	3.07950368e+02
296             	3.07951925e+02
297             	3.07953473e+02
298             	3.07955180e+02
299             	3.07956633e+02
300             	3.07958222e+02
301             	3.07959798e+02
302             	3.07961373e+02
303             	3.07962958e+02
304             	3.07964473e+02
305             	3.07965975e+02
306             	3.07967476e+02
307             	3.07968921e+02
308             	3.07970365e+02
309             	3.07971734e+02
310             	3.07972998e+02
311             	3.07974200e+02
312             	3.07975389e+02
313             	3.07976510e+02
314             	3.07977634e+02
315             	3.07978758e+02
316             	3.07979937e+02
317             	3.07981172e+02
318             	3.07982460e+02
319             	3.07983706e+02
320             	3.07984951e+02
321             	3.07986141e+02
322             	3.07987434e+02
323             	3.07988526e+02
324             	3.07989778e+02
325             	3.07990822e+02
326             	3.07991941e+02
327             	3.07992900e+02
328             	3.07994002e+02
329             	3.07994884e+02
330             	3.07995843e+02
331             	3.07996680e+02
332             	3.07997628e+02
333             	3.07998399e+02
334             	3.07999341e+02
335             	3.08000137e+02
336             	3.08001058e+02
337             	3.08001871e+02
338             	3.08002918e+02
339             	3.08003847e+02
340             	3.08004860e+02
341             	3.08005744e+02
342             	3.08006743e+02
343             	3.08007566e+02
344             	3.08008487e+02
345             	3.08009211e+02
346             	3.08010012e+02
347             	3.08010641e+02
348             	3.08011407e+02
349             	3.08012030e+02
350             	3.08012806e+02
351             	3.08013441e+02
352             	3.08014240e+02
353             	3.08014921e+02
354             	3.08015773e+02
355             	3.08016524e+02
356             	3.08017381e+02
357             	3.08018216e+02
358             	3.08018976e+02
359             	3.08019691e+02
360             	3.08020357e+02
361             	3.08021006e+02
362             	3.08021661e+02
363             	3.08022223e+02
364             	3.08022759e+02
365             	3.08023313e+02
366             	3.08023912e+02
367             	3.08024471e+02
368             	3.08025037e+02
369             	3.08025622e+02
370             	3.08026251e+02
371             	3.08026843e+02
372             	3.08027440e+02
373             	3.08028038e+02
374             	3.08028679e+02
375             	3.08029262e+02
376             	3.08029795e+02
377             	3.08030340e+02
378             	3.08030888e+02
379             	3.08031390e+02
380             	3.08031873e+02
381             	3.08032320e+02
382             	3.08032797e+02
383             	3.08033239e+02
384             	3.08033703e+02
385             	3.08034155e+02
386             	3.08034615e+02
387             	3.08035048e+02
388             	3.08035497e+02
389             	3.08035940e+02
390             	3.08036407e+02
391             	3.08036849e+02
392             	3.08037309e+02
393             	3.08037762e+02
394             	3.08038217e+02
395             	3.08038646e+02
396             	3.08039080e+02
397             	3.08039492e+02
398             	3.08039902e+02
399             	3.08040292e+02
400             	3.08040687e+02
401             	3.08041045e+02
402             	3.08041393e+02
403             	3.08041742e+02
404             	3.08042114e+02
405             	3.08042439e+02
406             	3.08042753e+02
407             	3.08043088e+02
408             	3.08043455e+02
409             	3.08043793e+02
410             	3.08044133e+02
411             	3.08044481e+02
412             	3.08044867e+02
413             	3.08045233e+02
414             	3.08045573e+02
415             	3.08045911e+02
416             	3.08046268e+02
417             	3.08046594e+02
418             	3.08046911e+02
419             	3.08047214e+02
420             	3.08047532e+02
421             	3.08047819e+02
422             	3.08048100e+02
423             	3.08048383e+02
424             	3.08048692e+02
425             	3.08048954e+02
426             	3.08049205e+02
427             	3.08049472e+02
428             	3.08049772e+02
429             	3.08050042e+02
430             	3.08050300e+02
431             	3.08050566e+02
432             	3.08050869e+02
433             	3.08051131e+02
434             	3.08051370e+02
435             	3.08051631e+02
436             	3.08051909e+02
437             	3.08052169e+02
438             	3.08052432e+02
439             	3.08052672e+02
440             	3.08052926e+02
441             	3.08053152e+02
442             	3.08053371e+02
443             	3.08053587e+02
444             	3.08053830e+02
445             	3.08054035e+02
446             	3.08054225e+02
447             	3.08054420e+02
448             	3.08054647e+02
449             	3.08054835e+02
450             	3.08055004e+02
451             	3.08055184e+02
452             	3.08055401e+02
453             	3.08055578e+02
454             	3.08055742e+02
455             	3.08055919e+02
456             	3.08056134e+02
457             	3.08056313e+02
458             	3.08056480e+02
459             	3.08056660e+02
460             	3.08056879e+02
461             	3.08057060e+02
462             	3.08057226e+02
463             	3.08057406e+02
464             	3.08057622e+02
465             	3.08057800e+02
466             	3.08057963e+02
467             	3.08058135e+02
468             	3.08058343e+02
469             	3.08058512e+02
470             	3.08058665e+02
471             	3.08058833e+02
472             	3.08059037e+02
473             	3.08059194e+02
474             	3.08059330e+02
475             	3.08059478e+02
476             	3.08059658e+02
477             	3.08059798e+02
478             	3.08059926e+02
479             	3.08060059e+02
480             	3.08060225e+02
481             	3.08060350e+02
482             	3.08060453e+02
483             	3.08060573e+02
484             	3.08060721e+02
485             	3.08060841e+02
486             	3.08060958e+02
487             	3.08061078e+02
488             	3.08061237e+02
489             	3.08061358e+02
490             	3.08061468e+02
491             	3.08061596e+02
492             	3.08061770e+02
493             	3.08061904e+02
494             	3.08062020e+02
495             	3.08062144e+02
496             	3.08062310e+02
497             	3.08062430e+02
498             	3.08062522e+02
499             	3.08062628e+02
500             	3.08062763e+02
501             	3.08062864e+02
502             	3.08062968e+02
503             	3.08063071e+02
504             	3.08063197e+02
505             	3.08063290e+02
506             	3.08063373e+02
507             	3.08063467e+02
508             	3.08063609e+02
509             	3.08063711e+02
510             	3.08063800e+02
511             	3.08063918e+02
512             	3.08064069e+02
513             	3.08064170e+02
514             	3.08064260e+02
515             	3.08064360e+02
516             	3.08064495e+02
517             	3.08064578e+02
518             	3.08064629e+02
519             	3.08064692e+02
520             	3.08064798e+02
521             	3.08064872e+02
522             	3.08064947e+02
523             	3.08065034e+02
524             	3.08065153e+02
525             	3.08065229e+02
526             	3.08065285e+02
527             	3.08065355e+02
528             	3.08065446e+02
529             	3.08065504e+02
530             	3.08065566e+02
531             	3.08065636e+02
532             	3.08065750e+02
533             	3.08065828e+02
534             	3.08065895e+02
535             	3.08065991e+02
536             	3.08066119e+02
537             	3.08066202e+02
538             	3.08066268e+02
539             	3.08066338e+02
540             	3.08066446e+02
541             	3.08066507e+02
542             	3.08066543e+02
543             	3.08066595e+02
544             	3.08066671e+02
545             	3.08066714e+02
546             	3.08066756e+02
547             	3.08066793e+02
548             	3.08066854e+02
549             	3.08066887e+02
550             	3.08066919e+02
551             	3.08066966e+02
552             	3.08067062e+02
553             	3.08067117e+02
554             	3.08067161e+02
555             	3.08067226e+02
556             	3.08067325e+02
557             	3.08067392e+02
558             	3.08067447e+02
559             	3.08067502e+02
560             	3.08067594e+02
561             	3.08067641e+02
562             	3.08067667e+02
563             	3.08067712e+02
564             	3.08067786e+02
565             	3.08067830e+02
566             	3.08067877e+02
567             	3.08067920e+02
568             	3.08067993e+02
569             	3.08068038e+02
570             	3.08068075e+02
571             	3.08068123e+02
572             	3.08068191e+02
573             	3.08068228e+02
574             	3.08068257e+02
575             	3.08068295e+02
576             	3.08068368e+02
577             	3.08068402e+02
578             	3.08068438e+02
579             	3.08068486e+02
580             	3.08068581e+02
581             	3.08068634e+02
582             	3.08068663e+02
583             	3.08068712e+02
584             	3.08068784e+02
585             	3.08068833e+02
586             	3.08068896e+02
587             	3.08068941e+02
588             	3.08068997e+02
589             	3.08069032e+02
590             	3.08069077e+02
591             	3.08069106e+02
592             	3.08069149e+02
593             	3.08069176e+02
594             	3.08069211e+02
595             	3.08069238e+02
596             	3.08069276e+02
597             	3.08069299e+02
598             	3.08069335e+02
599             	3.08069366e+02
600             	3.08069419e+02
601             	3.08069451e+02
602             	3.08069480e+02
603             	3.08069512e+02
604             	3.08069581e+02
605             	3.08069613e+02
606             	3.08069627e+02
607             	3.08069655e+02
608             	3.08069728e+02
609             	3.08069759e+02
610             	3.08069777e+02
611             	3.08069810e+02
612             	3.08069872e+02
613             	3.08069899e+02
614             	3.08069911e+02
615             	3.08069932e+02
616             	3.08069976e+02
617             	3.08069987e+02
618             	3.08069988e+02
619             	3.08069999e+02
620             	3.08070058e+02
621             	3.08070081e+02
622             	3.08070093e+02
623             	3.08070122e+02
624             	3.08070191e+02
625             	3.08070225e+02
626             	3.08070241e+02
627             	3.08070268e+02
628             	3.08070333e+02
629             	3.08070359e+02
630             	3.08070385e+02
631             	3.08070418e+02
632             	3.08070469e+02
633             	3.08070480e+02
634             	3.08070486e+02
635             	3.08070496e+02
636             	3.08070537e+02
637             	3.08070536e+02
638             	3.08070502e+02
639             	3.08070499e+02
640             	3.08070510e+02
641             	3.08070522e+02
642             	3.08070566e+02
643             	3.08070572e+02
644             	3.08070573e+02
645             	3.08070581e+02
646             	3.08070629e+02
647             	3.08070647e+02
648             	3.08070655e+02
649             	3.08070692e+02
650             	3.08070762e+02
651             	3.08070785e+02
652             	3.08070798e+02
653             	3.08070817e+02
654             	3.08070873e+02
655             	3.08070883e+02
656             	3.08070872e+02
657             	3.08070886e+02
658             	3.08070910e+02
659             	3.08070911e+02
660             	3.08070912e+02
661             	3.08070895e+02
662             	3.08070897e+02
663             	3.08070900e+02
664             	3.08070923e+02
665             	3.08070932e+02
666             	3.08070955e+02
667             	3.08070971e+02
668             	3.08070999e+02
669             	3.08071035e+02
670             	3.08071086e+02
671             	3.08071102e+02
672             	3.08071126e+02
673             	3.08071138e+02
674             	3.08071173e+02
675             	3.08071177e+02
676             	3.08071176e+02
677             	3.08071174e+02
678             	3.08071209e+02
679             	3.08071195e+02
680             	3.08071167e+02
681             	3.08071154e+02
682             	3.08071173e+02
683             	3.08071161e+02
684             	3.08071146e+02
685             	3.08071144e+02
686             	3.08071178e+02
687             	3.08071177e+02
688             	3.08071166e+02
689             	3.08071167e+02
690             	3.08071196e+02
691             	3.08071196e+02
692             	3.08071198e+02
693             	3.08071199e+02
694             	3.08071240e+02
695             	3.08071241e+02
696             	3.08071230e+02
697             	3.08071240e+02
698             	3.08071295e+02
699             	3.08071304e+02
700             	3.08071295e+02
701             	3.08071310e+02
702             	3.08071353e+02
703             	3.08071362e+02
704             	3.08071366e+02
705             	3.08071370e+02
706             	3.08071400e+02
707             	3.08071393e+02
708             	3.08071366e+02
709             	3.08071354e+02
710             	3.08071382e+02
711             	3.08071371e+02
712             	3.08071351e+02
713             	3.08071339e+02
714             	3.08071374e+02
715             	3.08071369e+02
716             	3.08071353e+02
717             	3.08071355e+02
718             	3.08071393e+02
719             	3.08071396e+02
720             	3.08071383e+02
721             	3.08071387e+02
722             	3.08071423e+02
723             	3.08071428e+02
724             	3.08071434e+02
725             	3.08071438e+02
726             	3.08071479e+02
727             	3.08071487e+02
728             	3.08071486e+02
729             	3.08071494e+02
730             	3.08071545e+02
731             	3.08071554e+02
732             	3.08071540e+02
733             	3.08071544e+02
734             	3.08071576e+02
735             	3.08071577e+02
736             	3.08071576e+02
737             	3.08071578e+02
738             	3.08071612e+02
739             	3.08071614e+02
740             	3.08071593e+02
741             	3.08071595e+02
742             	3.08071631e+02
743             	3.08071636e+02
744             	3.08071636e+02
745             	3.08071637e+02
746             	3.08071682e+02
747             	3.08071682e+02
748             	3.08071660e+02
749             	3.08071652e+02
750             	3.08071684e+02
751             	3.08071682e+02
752             	3.08071659e+02
753             	3.08071651e+02
754             	3.08071694e+02
755             	3.08071702e+02
756             	3.08071696e+02
757             	3.08071728e+02
758             	3.08071784e+02
759             	3.08071808e+02
760             	3.08071839e+02
761             	3.08071843e+02
762             	3.08071847e+02
763             	3.08071840e+02
764             	3.08071849e+02
765             	3.08071836e+02
766             	3.08071832e+02
767             	3.08071820e+02
768             	3.08071829e+02
769             	3.08071826e+02
770             	3.08071837e+02
771             	3.08071832e+02
772             	3.08071839e+02
773             	3.08071836e+02
774             	3.08071856e+02
775             	3.08071858e+02
776             	3.08071862e+02
777             	3.08071851e+02
778             	3.08071858e+02
779             	3.08071837e+02
780             	3.08071812e+02
781             	3.08071782e+02
782             	3.08071784e+02
783             	3.08071766e+02
784             	3.08071758e+02
785             	3.08071777e+02
786             	3.08071829e+02
787             	3.08071840e+02
788             	3.08071839e+02
789             	3.08071844e+02
790             	3.08071879e+02
791             	3.08071877e+02
792             	3.08071868e+02
793             	3.08071871e+02
794             	3.08071908e+02
795             	3.08071899e+02
796             	3.08071872e+02
797             	3.08071857e+02
798             	3.08071877e+02
799             	3.08071867e+02
800             	3.08071848e+02
801             	3.08071841e+02
802             	3.08071881e+02
803             	3.08071876e+02
804             	3.08071862e+02
805             	3.08071868e+02
806             	3.08071898e+02
807             	3.08071898e+02
808             	3.08071894e+02
809             	3.08071887e+02
810             	3.08071913e+02
811             	3.08071901e+02
812             	3.08071873e+02
813             	3.08071857e+02
814             	3.08071874e+02
815             	3.08071853e+02
816             	3.08071822e+02
817             	3.08071803e+02
818             	3.08071829e+02
819             	3.08071818e+02
820             	3.08071791e+02
821             	3.08071786e+02
822             	3.08071813e+02
823             	3.08071812e+02
824             	3.08071813e+02
825             	3.08071815e+02
826             	3.08071854e+02
827             	3.08071850e+02
828             	3.08071830e+02
829             	3.08071830e+02
830             	3.08071865e+02
831             	3.08071859e+02
832             	3.08071841e+02
833             	3.08071834e+02
834             	3.08071869e+02
835             	3.08071863e+02
836             	3.08071848e+02
837             	3.08071845e+02
838             	3.08071882e+02
839             	3.08071881e+02
840             	3.08071862e+02
841             	3.08071857e+02
842             	3.08071891e+02
843             	3.08071888e+02
844             	3.08071875e+02
845             	3.08071875e+02
846             	3.08071914e+02
847             	3.08071911e+02
848             	3.08071892e+02
849             	3.08071887e+02
850             	3.08071918e+02
851             	3.08071910e+02
852             	3.08071893e+02
853             	3.08071885e+02
854             	3.08071907e+02
855             	3.08071894e+02
856             	3.08071876e+02
857             	3.08071871e+02
858             	3.08071906e+02
859             	3.08071904e+02
860             	3.08071889e+02
861             	3.08071886e+02
862             	3.08071929e+02
863             	3.08071933e+02
864             	3.08071922e+02
865             	3.08071947e+02
866             	3.08071995e+02
867             	3.08071999e+02
868             	3.08072009e+02
869             	3.08072016e+02
870             	3.08072043e+02
871             	3.08072032e+02
872             	3.08072016e+02
873             	3.08071994e+02
874             	3.08071997e+02
875             	3.08071965e+02
876             	3.08071925e+02
877             	3.08071901e+02
878             	3.08071914e+02
879             	3.08071896e+02
880             	3.08071865e+02
881             	3.08071850e+02
882             	3.08071874e+02
883             	3.08071869e+02
884             	3.08071860e+02
885             	3.08071869e+02
886             	3.08071916e+02
887             	3.08071923e+02
888             	3.08071931e+02
889             	3.08071930e+02
890             	3.08071950e+02
891             	3.08071934e+02
892             	3.08071906e+02
893             	3.08071892e+02
894             	3.08071913e+02
895             	3.08071893e+02
896             	3.08071867e+02
897             	3.08071874e+02
898             	3.08071913e+02
899             	3.08071914e+02
900             	3.08071909e+02
901             	3.08071900e+02
902             	3.08071920e+02
903             	3.08071902e+02
904             	3.08071874e+02
905             	3.08071851e+02
906             	3.08071879e+02
907             	3.08071857e+02
908             	3.08071820e+02
909             	3.08071812e+02
910             	3.08071842e+02
911             	3.08071846e+02
912             	3.08071847e+02
913             	3.08071845e+02
914             	3.08071878e+02
915             	3.08071881e+02
916             	3.08071878e+02
917             	3.08071898e+02
918             	3.08071946e+02
919             	3.08071955e+02
920             	3.08071959e+02
921             	3.08071952e+02
922             	3.08071963e+02
923             	3.08071949e+02
924             	3.08071926e+02
925             	3.08071903e+02
926             	3.08071921e+02
927             	3.08071903e+02
928             	3.08071877e+02
929             	3.08071870e+02
930             	3.08071904e+02
931             	3.08071901e+02
932             	3.08071884e+02
933             	3.08071886e+02