# Region        : cellZone fluid
# Cells         : 8109
# Volume        : 1.58998809e+01
# Time          	volAverage(T)
1               	3.00000033e+02
2               	3.00000072e+02
3               	3.00000354e+02
4               	3.00000770e+02
5               	3.00001069e+02
6               	3.00001405e+02
7               	3.00001751e+02
8               	3.00002176e+02
9               	3.00002874e+02
10              	3.00003419e+02
11              	3.00004115e+02
12              	3.00005040e+02
13              	3.00006029e+02
14              	3.00007196e+02
15              	3.00008465e+02
16              	3.00009679e+02
17              	3.00010706e+02
18              	3.00011613e+02
19              	3.00012456e+02
20              	3.00013650e+02
21              	3.00014787e+02
22              	3.00016099e+02
23              	3.00017367e+02
24              	3.00018802e+02
25              	3.00019673e+02
26              	3.00020719e+02
27              	3.00021994e+02
28              	3.00023443e+02
29              	3.00024789e+02
30              	3.00026256e+02
31              	3.00028017e+02
32              	3.00029730e+02
33              	3.00031086e+02
34              	3.00032817e+02
35              	3.00034831e+02
36              	3.00036386e+02
37              	3.00038158e+02
38              	3.00039817e+02
39              	3.00042244e+02
40              	3.00044238e+02
41              	3.00046533e+02
42              	3.00048569e+02
43              	3.00051001e+02
44              	3.00053551e+02
45              	3.00056128e+02
46              	3.00058382e+02
47              	3.00059968e+02
48              	3.00062364e+02
49              	3.00063493e+02
50              	3.00064993e+02
51              	3.00066545e+02
52              	3.00068246e+02
53              	3.00069312e+02
54              	3.00070538e+02
55              	3.00071659e+02
56              	3.00073097e+02
57              	3.00075149e+02
58              	3.00076737e+02
59              	3.00078059e+02
60              	3.00079925e+02
61              	3.00081669e+02
62              	3.00083588e+02
63              	3.00085593e+02
64              	3.00087767e+02
65              	3.00090264e+02
66              	3.00093440e+02
67              	3.00095734e+02
68              	3.00098410e+02
69              	3.00100288e+02
70              	3.00101804e+02
71              	3.00102913e+02
72              	3.00104388e+02
73              	3.00106056e+02
74              	3.00107813e+02
75              	3.00109853e+02
76              	3.00112082e+02
77              	3.00113914e+02
78              	3.00116129e+02
79              	3.00119144e+02
80              	3.00121499e+02
81              	3.00124395e+02
82              	3.00125656e+02
83              	3.00127531e+02
84              	3.00130197e+02
85              	3.00132552e+02
86              	3.00135065e+02
87              	3.00137125e+02
88              	3.00139041e+02
89              	3.00140595e+02
90              	3.00142214e+02
91              	3.00143428e+02
92              	3.00144376e+02
93              	3.00145485e+02
94              	3.00146626e+02
95              	3.00148531e+02
96              	3.00150381e+02
97              	3.00152001e+02
98              	3.00154127e+02
99              	3.00156503e+02
100             	3.00158462e+02
101             	3.00160281e+02
102             	3.00161914e+02
103             	3.00163536e+02
104             	3.00165010e+02
105             	3.00166777e+02
106             	3.00168108e+02
107             	3.00169837e+02
108             	3.00171280e+02
109             	3.00172793e+02
110             	3.00174328e+02
111             	3.00175484e+02
112             	3.00176418e+02
113             	3.00177532e+02
114             	3.00179156e+02
115             	3.00179745e+02
116             	3.00180589e+02
117             	3.00181646e+02
118             	3.00182923e+02
119             	3.00184269e+02
120             	3.00185669e+02
121             	3.00187053e+02
122             	3.00188515e+02
123             	3.00189904e+02
124             	3.00191240e+02
125             	3.00192463e+02
126             	3.00193261e+02
127             	3.00194640e+02
128             	3.00195762e+02
129             	3.00196819e+02
130             	3.00197820e+02
131             	3.00198801e+02
132             	3.00199887e+02
133             	3.00200759e+02
134             	3.00201702e+02
135             	3.00202773e+02
136             	3.00203704e+02
137             	3.00204615e+02
138             	3.00205528e+02
139             	3.00207194e+02
140             	3.00207795e+02
141             	3.00208560e+02
142             	3.00209442e+02
143             	3.00210340e+02
144             	3.00211170e+02
145             	3.00211952e+02
146             	3.00212727e+02
147             	3.00213496e+02
148             	3.00214286e+02
149             	3.00215066e+02
150             	3.00215944e+02
151             	3.00216714e+02
152             	3.00217405e+02
153             	3.00217620e+02
154             	3.00218364e+02
155             	3.00219032e+02
156             	3.00219585e+02
157             	3.00220075e+02
158             	3.00220459e+02
159             	3.00220928e+02
160             	3.00221868e+02
161             	3.00222025e+02
162             	3.00223155e+02
163             	3.00223213e+02
164             	3.00223606e+02
165             	3.00223958e+02
166             	3.00224547e+02
167             	3.00225052e+02
168             	3.00225623e+02
169             	3.00225780e+02
170             	3.00225875e+02
171             	3.00226591e+02
172             	3.00227099e+02
173             	3.00227491e+02
174             	3.00227893e+02
175             	3.00228303e+02
176             	3.00228646e+02
177             	3.00229504e+02
178             	3.00229431e+02
179             	3.00229641e+02
180             	3.00229775e+02
181             	3.00230018e+02
182             	3.00230443e+02
183             	3.00231133e+02
184             	3.00231543e+02
185             	3.00231858e+02
186             	3.00232178e+02
187             	3.00232547e+02
188             	3.00232951e+02
189             	3.00233398e+02
190             	3.00233847e+02
191             	3.00234331e+02
192             	3.00234675e+02
193             	3.00235331e+02
194             	3.00235803e+02
195             	3.00236306e+02
196             	3.00236791e+02
197             	3.00237198e+02
198             	3.00237571e+02
199             	3.00237906e+02
200             	3.00238131e+02
201             	3.00238318e+02
202             	3.00238509e+02
203             	3.00238653e+02
204             	3.00238836e+02
205             	3.00238965e+02
206             	3.00239162e+02
207             	3.00239556e+02
208             	3.00239924e+02
209             	3.00240076e+02
210             	3.00240281e+02
211             	3.00240487e+02
212             	3.00240691e+02
213             	3.00240893e+02
214             	3.00241414e+02
215             	3.00241643e+02
216             	3.00241969e+02
217             	3.00242328e+02
218             	3.00242689e+02
219             	3.00243021e+02
220             	3.00243415e+02
221             	3.00243727e+02
222             	3.00244020e+02
223             	3.00244291e+02
224             	3.00244546e+02
225             	3.00244807e+02
226             	3.00245048e+02
227             	3.00245294e+02
228             	3.00245535e+02
229             	3.00245785e+02
230             	3.00245990e+02
231             	3.00246214e+02
232             	3.00246238e+02
233             	3.00246511e+02
234             	3.00246778e+02
235             	3.00247063e+02
236             	3.00247361e+02
237             	3.00247598e+02
238             	3.00247876e+02
239             	3.00248160e+02
240             	3.00248473e+02
241             	3.00248811e+02
242             	3.00249152e+02
243             	3.00249508e+02
244             	3.00249820e+02
245             	3.00250062e+02
246             	3.00250314e+02
247             	3.00250583e+02
248             	3.00250877e+02
249             	3.00251113e+02
250             	3.00251382e+02
251             	3.00251677e+02
252             	3.00251964e+02
253             	3.00252248e+02
254             	3.00252601e+02
255             	3.00252915e+02
256             	3.00253234e+02
257             	3.00253550e+02
258             	3.00253810e+02
259             	3.00254069e+02
260             	3.00254408e+02
261             	3.00254743e+02
262             	3.00255063e+02
263             	3.00255319e+02
264             	3.00255616e+02
265             	3.00255884e+02
266             	3.00256151e+02
267             	3.00256401e+02
268             	3.00256647e+02
269             	3.00256888e+02
270             	3.00257095e+02
271             	3.00257339e+02
272             	3.00257625e+02
273             	3.00257906e+02
274             	3.00258214e+02
275             	3.00258487e+02
276             	3.00258748e+02
277             	3.00259027e+02
278             	3.00259296e+02
279             	3.00259528e+02
280             	3.00259761e+02
281             	3.00260014e+02
282             	3.00260234e+02
283             	3.00260484e+02
284             	3.00260702e+02
285             	3.00260897e+02
286             	3.00261104e+02
287             	3.00261359e+02
288             	3.00261626e+02
289             	3.00261815e+02
290             	3.00261994e+02
291             	3.00262189e+02
292             	3.00262351e+02
293             	3.00262564e+02
294             	3.00262758e+02
295             	3.00262910e+02
296             	3.00263046e+02
297             	3.00263246e+02
298             	3.00263411e+02
299             	3.00263574e+02
300             	3.00263713e+02
301             	3.00263834e+02
302             	3.00263936e+02
303             	3.00264000e+02
304             	3.00264101e+02
305             	3.00264209e+02
306             	3.00264303e+02
307             	3.00264392e+02
308             	3.00264500e+02
309             	3.00264594e+02
310             	3.00264661e+02
311             	3.00264716e+02
312             	3.00264846e+02
313             	3.00264887e+02
314             	3.00264975e+02
315             	3.00265071e+02
316             	3.00265183e+02
317             	3.00265298e+02
318             	3.00265540e+02
319             	3.00265644e+02
320             	3.00265791e+02
321             	3.00265930e+02
322             	3.00266066e+02
323             	3.00266181e+02
324             	3.00266306e+02
325             	3.00266461e+02
326             	3.00266466e+02
327             	3.00266685e+02
328             	3.00266845e+02
329             	3.00266988e+02
330             	3.00267083e+02
331             	3.00267149e+02
332             	3.00267232e+02
333             	3.00267312e+02
334             	3.00267335e+02
335             	3.00267396e+02
336             	3.00267441e+02
337             	3.00267462e+02
338             	3.00267527e+02
339             	3.00267525e+02
340             	3.00267592e+02
341             	3.00267642e+02
342             	3.00267705e+02
343             	3.00267775e+02
344             	3.00267862e+02
345             	3.00267957e+02
346             	3.00268030e+02
347             	3.00268146e+02
348             	3.00268231e+02
349             	3.00268322e+02
350             	3.00268442e+02
351             	3.00268586e+02
352             	3.00268623e+02
353             	3.00268820e+02
354             	3.00268950e+02
355             	3.00269044e+02
356             	3.00269160e+02
357             	3.00269241e+02
358             	3.00269295e+02
359             	3.00269377e+02
360             	3.00269436e+02
361             	3.00269495e+02
362             	3.00269562e+02
363             	3.00269623e+02
364             	3.00269665e+02
365             	3.00269728e+02
366             	3.00269766e+02
367             	3.00269818e+02
368             	3.00269862e+02
369             	3.00269898e+02
370             	3.00269924e+02
371             	3.00269986e+02
372             	3.00270023e+02
373             	3.00270056e+02
374             	3.00270111e+02
375             	3.00270153e+02
376             	3.00270187e+02
377             	3.00270245e+02
378             	3.00270279e+02
379             	3.00270312e+02
380             	3.00270372e+02
381             	3.00270431e+02
382             	3.00270480e+02
383             	3.00270550e+02
384             	3.00270608e+02
385             	3.00270656e+02
386             	3.00270741e+02
387             	3.00270814e+02
388             	3.00270874e+02
389             	3.00270964e+02
390             	3.00271015e+02
391             	3.00271064e+02
392             	3.00271135e+02
393             	3.00271198e+02
394             	3.00271275e+02
395             	3.00271331e+02
396             	3.00271400e+02
397             	3.00271475e+02
398             	3.00271554e+02
399             	3.00271631e+02
400             	3.00271672e+02
401             	3.00271747e+02
402             	3.00271807e+02
403             	3.00271863e+02
404             	3.00271924e+02
405             	3.00271987e+02
406             	3.00272047e+02
407             	3.00272114e+02
408             	3.00272187e+02
409             	3.00272254e+02
410             	3.00272324e+02
411             	3.00272397e+02
412             	3.00272473e+02
413             	3.00272545e+02
414             	3.00272620e+02
415             	3.00272696e+02
416             	3.00272764e+02
417             	3.00272827e+02
418             	3.00272890e+02
419             	3.00272949e+02
420             	3.00273002e+02
421             	3.00273058e+02
422             	3.00273116e+02
423             	3.00273163e+02
424             	3.00273211e+02
425             	3.00273256e+02
426             	3.00273304e+02
427             	3.00273352e+02
428             	3.00273398e+02
429             	3.00273449e+02
430             	3.00273495e+02
431             	3.00273542e+02
432             	3.00273594e+02
433             	3.00273649e+02
434             	3.00273703e+02
435             	3.00273756e+02
436             	3.00273811e+02
437             	3.00273867e+02
438             	3.00273920e+02
439             	3.00273978e+02
440             	3.00274033e+02
441             	3.00274063e+02
442             	3.00274127e+02
443             	3.00274182e+02
444             	3.00274234e+02
445             	3.00274286e+02
446             	3.00274335e+02
447             	3.00274379e+02
448             	3.00274426e+02
449             	3.00274472e+02
450             	3.00274519e+02
451             	3.00274568e+02
452             	3.00274638e+02
453             	3.00274680e+02
454             	3.00274731e+02
455             	3.00274785e+02
456             	3.00274841e+02
457             	3.00274900e+02
458             	3.00274959e+02
459             	3.00275018e+02
460             	3.00275076e+02
461             	3.00275131e+02
462             	3.00275183e+02
463             	3.00275229e+02
464             	3.00275277e+02
465             	3.00275321e+02
466             	3.00275366e+02
467             	3.00275409e+02
468             	3.00275451e+02
469             	3.00275495e+02
470             	3.00275536e+02
471             	3.00275576e+02
472             	3.00275620e+02
473             	3.00275637e+02
474             	3.00275695e+02
475             	3.00275746e+02
476             	3.00275789e+02
477             	3.00275832e+02
478             	3.00275873e+02
479             	3.00275910e+02
480             	3.00275946e+02
481             	3.00275986e+02
482             	3.00276017e+02
483             	3.00276071e+02
484             	3.00276109e+02
485             	3.00276150e+02
486             	3.00276193e+02
487             	3.00276240e+02
488             	3.00276286e+02
489             	3.00276333e+02
490             	3.00276383e+02
491             	3.00276407e+02
492             	3.00276431e+02
493             	3.00276433e+02
494             	3.00276449e+02
495             	3.00276454e+02
496             	3.00276459e+02
497             	3.00276497e+02
498             	3.00276529e+02
499             	3.00276545e+02
500             	3.00276599e+02
501             	3.00276622e+02
502             	3.00276653e+02
503             	3.00276692e+02
504             	3.00276724e+02
505             	3.00276727e+02
506             	3.00276768e+02
507             	3.00276770e+02
508             	3.00276792e+02
509             	3.00276822e+02
510             	3.00276853e+02
511             	3.00276864e+02
512             	3.00276916e+02
513             	3.00276940e+02
514             	3.00276977e+02
515             	3.00277026e+02
516             	3.00277080e+02
517             	3.00277117e+02
518             	3.00277196e+02
519             	3.00277267e+02
520             	3.00277340e+02
521             	3.00277443e+02
522             	3.00277537e+02
523             	3.00277630e+02
524             	3.00277755e+02
525             	3.00277867e+02
526             	3.00277984e+02
527             	3.00278135e+02
528             	3.00278275e+02
529             	3.00278420e+02
530             	3.00278598e+02
531             	3.00278762e+02
532             	3.00278902e+02
533             	3.00279083e+02
534             	3.00279236e+02
535             	3.00279413e+02
536             	3.00279629e+02
537             	3.00279824e+02
538             	3.00280014e+02
539             	3.00280225e+02
540             	3.00280407e+02
541             	3.00280587e+02
542             	3.00280791e+02
543             	3.00280966e+02
544             	3.00281132e+02
545             	3.00281314e+02
546             	3.00281481e+02
547             	3.00281653e+02
548             	3.00281758e+02
549             	3.00281964e+02
550             	3.00282133e+02
551             	3.00282265e+02
552             	3.00282385e+02
553             	3.00282512e+02
554             	3.00282625e+02
555             	3.00282746e+02
556             	3.00282872e+02
557             	3.00282997e+02
558             	3.00283131e+02
559             	3.00283265e+02
560             	3.00283417e+02
561             	3.00283551e+02
562             	3.00283692e+02
563             	3.00283825e+02
564             	3.00283972e+02
565             	3.00284117e+02
566             	3.00284257e+02
567             	3.00284351e+02
568             	3.00284472e+02
569             	3.00284581e+02
570             	3.00284679e+02
571             	3.00284741e+02
572             	3.00284772e+02
573             	3.00284775e+02
574             	3.00284748e+02
575             	3.00284704e+02
576             	3.00284742e+02
577             	3.00284645e+02
578             	3.00284543e+02
579             	3.00284432e+02
580             	3.00284326e+02
581             	3.00284216e+02
582             	3.00283895e+02
583             	3.00283815e+02
584             	3.00283692e+02
585             	3.00283655e+02
586             	3.00283600e+02
587             	3.00283447e+02
588             	3.00283436e+02
589             	3.00283243e+02
590             	3.00283046e+02
591             	3.00282905e+02
592             	3.00282786e+02
593             	3.00282736e+02
594             	3.00282692e+02
595             	3.00282657e+02
596             	3.00282630e+02
597             	3.00282575e+02
598             	3.00282489e+02
599             	3.00282372e+02
600             	3.00282264e+02
601             	3.00282210e+02
602             	3.00282129e+02
603             	3.00282041e+02
604             	3.00281984e+02
605             	3.00281865e+02
606             	3.00281836e+02
607             	3.00281771e+02
608             	3.00281739e+02
609             	3.00281690e+02
610             	3.00281649e+02
611             	3.00281607e+02
612             	3.00281570e+02
613             	3.00281528e+02
614             	3.00281481e+02
615             	3.00281415e+02
616             	3.00281400e+02
617             	3.00281391e+02
618             	3.00281350e+02
619             	3.00281323e+02
620             	3.00281288e+02
621             	3.00281264e+02
622             	3.00281243e+02
623             	3.00281228e+02
624             	3.00281211e+02
625             	3.00281198e+02
626             	3.00281192e+02
627             	3.00281197e+02
628             	3.00281189e+02
629             	3.00281174e+02
630             	3.00281192e+02
631             	3.00281197e+02
632             	3.00281211e+02
633             	3.00281214e+02
634             	3.00281205e+02
635             	3.00281204e+02
636             	3.00281215e+02
637             	3.00281211e+02
638             	3.00281214e+02
639             	3.00281225e+02
640             	3.00281230e+02
641             	3.00281236e+02
642             	3.00281234e+02
643             	3.00281249e+02
644             	3.00281245e+02
645             	3.00281238e+02
646             	3.00281238e+02
647             	3.00281255e+02
648             	3.00281252e+02
649             	3.00281241e+02
650             	3.00281263e+02
651             	3.00281252e+02
652             	3.00281275e+02
653             	3.00281256e+02
654             	3.00281239e+02
655             	3.00281232e+02
656             	3.00281229e+02
657             	3.00281235e+02
658             	3.00281246e+02
659             	3.00281265e+02
660             	3.00281289e+02
661             	3.00281319e+02
662             	3.00281346e+02
663             	3.00281383e+02
664             	3.00281403e+02
665             	3.00281424e+02
666             	3.00281461e+02
667             	3.00281497e+02
668             	3.00281520e+02
669             	3.00281553e+02
670             	3.00281576e+02
671             	3.00281597e+02
672             	3.00281610e+02
673             	3.00281625e+02
674             	3.00281648e+02
675             	3.00281659e+02
676             	3.00281673e+02
677             	3.00281703e+02
678             	3.00281713e+02
679             	3.00281729e+02
680             	3.00281743e+02
681             	3.00281754e+02
682             	3.00281768e+02
683             	3.00281785e+02
684             	3.00281798e+02
685             	3.00281810e+02
686             	3.00281823e+02
687             	3.00281838e+02
688             	3.00281860e+02
689             	3.00281869e+02
690             	3.00281891e+02
691             	3.00281903e+02
692             	3.00281911e+02
693             	3.00281922e+02
694             	3.00281945e+02
695             	3.00281966e+02
696             	3.00281969e+02
697             	3.00281979e+02
698             	3.00281994e+02
699             	3.00282013e+02
700             	3.00282035e+02
701             	3.00282054e+02
702             	3.00282063e+02
703             	3.00282080e+02
704             	3.00282116e+02
705             	3.00282130e+02
706             	3.00282155e+02
707             	3.00282185e+02
708             	3.00282218e+02
709             	3.00282241e+02
710             	3.00282260e+02
711             	3.00282282e+02
712             	3.00282299e+02
713             	3.00282316e+02
714             	3.00282338e+02
715             	3.00282359e+02
716             	3.00282378e+02
717             	3.00282382e+02
718             	3.00282396e+02
719             	3.00282406e+02
720             	3.00282415e+02
721             	3.00282422e+02
722             	3.00282437e+02
723             	3.00282451e+02
724             	3.00282459e+02
725             	3.00282464e+02
726             	3.00282471e+02
727             	3.00282476e+02
728             	3.00282488e+02
729             	3.00282507e+02
730             	3.00282519e+02
731             	3.00282534e+02
732             	3.00282545e+02
733             	3.00282561e+02
734             	3.00282578e+02
735             	3.00282595e+02
736             	3.00282611e+02
737             	3.00282622e+02
738             	3.00282635e+02
739             	3.00282649e+02
740             	3.00282660e+02
741             	3.00282672e+02
742             	3.00282682e+02
743             	3.00282689e+02
744             	3.00282704e+02
745             	3.00282720e+02
746             	3.00282736e+02
747             	3.00282750e+02
748             	3.00282762e+02
749             	3.00282772e+02
750             	3.00282783e+02
751             	3.00282792e+02
752             	3.00282807e+02
753             	3.00282819e+02
754             	3.00282829e+02
755             	3.00282841e+02
756             	3.00282840e+02
757             	3.00282849e+02
758             	3.00282856e+02
759             	3.00282860e+02
760             	3.00282865e+02
761             	3.00282868e+02
762             	3.00282869e+02
763             	3.00282876e+02
764             	3.00282883e+02
765             	3.00282889e+02
766             	3.00282895e+02
767             	3.00282904e+02
768             	3.00282913e+02
769             	3.00282922e+02
770             	3.00282930e+02
771             	3.00282938e+02
772             	3.00282949e+02
773             	3.00282961e+02
774             	3.00282972e+02
775             	3.00282981e+02
776             	3.00282988e+02
777             	3.00282995e+02
778             	3.00283001e+02
779             	3.00283007e+02
780             	3.00283014e+02
781             	3.00283022e+02
782             	3.00283028e+02
783             	3.00283033e+02
784             	3.00283039e+02
785             	3.00283044e+02
786             	3.00283050e+02
787             	3.00283056e+02
788             	3.00283062e+02
789             	3.00283070e+02
790             	3.00283075e+02
791             	3.00283079e+02
792             	3.00283084e+02
793             	3.00283089e+02
794             	3.00283092e+02
795             	3.00283097e+02
796             	3.00283101e+02
797             	3.00283106e+02
798             	3.00283109e+02
799             	3.00283111e+02
800             	3.00283113e+02
801             	3.00283114e+02
802             	3.00283118e+02
803             	3.00283122e+02
804             	3.00283124e+02
805             	3.00283126e+02
806             	3.00283132e+02
807             	3.00283137e+02
808             	3.00283143e+02
809             	3.00283147e+02
810             	3.00283147e+02
811             	3.00283148e+02
812             	3.00283154e+02
813             	3.00283160e+02
814             	3.00283166e+02
815             	3.00283170e+02
816             	3.00283174e+02
817             	3.00283177e+02
818             	3.00283182e+02
819             	3.00283187e+02
820             	3.00283192e+02
821             	3.00283196e+02
822             	3.00283203e+02
823             	3.00283208e+02
824             	3.00283212e+02
825             	3.00283216e+02
826             	3.00283217e+02
827             	3.00283219e+02
828             	3.00283221e+02
829             	3.00283223e+02
830             	3.00283219e+02
831             	3.00283220e+02
832             	3.00283220e+02
833             	3.00283222e+02
834             	3.00283225e+02
835             	3.00283225e+02
836             	3.00283225e+02
837             	3.00283225e+02
838             	3.00283225e+02
839             	3.00283227e+02
840             	3.00283224e+02
841             	3.00283225e+02
842             	3.00283227e+02
843             	3.00283228e+02
844             	3.00283223e+02
845             	3.00283227e+02
846             	3.00283230e+02
847             	3.00283232e+02
848             	3.00283232e+02
849             	3.00283229e+02
850             	3.00283232e+02
851             	3.00283235e+02
852             	3.00283233e+02
853             	3.00283233e+02
854             	3.00283236e+02
855             	3.00283242e+02
856             	3.00283239e+02
857             	3.00283235e+02
858             	3.00283241e+02
859             	3.00283245e+02
860             	3.00283243e+02
861             	3.00283241e+02
862             	3.00283243e+02
863             	3.00283246e+02
864             	3.00283250e+02
865             	3.00283254e+02
866             	3.00283256e+02
867             	3.00283252e+02
868             	3.00283251e+02
869             	3.00283254e+02
870             	3.00283257e+02
871             	3.00283257e+02
872             	3.00283258e+02
873             	3.00283260e+02
874             	3.00283260e+02
875             	3.00283264e+02
876             	3.00283267e+02
877             	3.00283268e+02
878             	3.00283270e+02
879             	3.00283269e+02
880             	3.00283269e+02
881             	3.00283271e+02
882             	3.00283276e+02
883             	3.00283279e+02
884             	3.00283278e+02
885             	3.00283275e+02
886             	3.00283279e+02
887             	3.00283283e+02
888             	3.00283282e+02
889             	3.00283283e+02
890             	3.00283286e+02
891             	3.00283288e+02
892             	3.00283290e+02
893             	3.00283293e+02
894             	3.00283297e+02
895             	3.00283301e+02
896             	3.00283299e+02
897             	3.00283297e+02
898             	3.00283305e+02
899             	3.00283308e+02
900             	3.00283311e+02
901             	3.00283315e+02
902             	3.00283319e+02
903             	3.00283322e+02
904             	3.00283327e+02
905             	3.00283331e+02
906             	3.00283335e+02
907             	3.00283337e+02
908             	3.00283340e+02
909             	3.00283342e+02
910             	3.00283343e+02
911             	3.00283344e+02
912             	3.00283345e+02
913             	3.00283345e+02
914             	3.00283346e+02
915             	3.00283348e+02
916             	3.00283351e+02
917             	3.00283355e+02
918             	3.00283357e+02
919             	3.00283359e+02
920             	3.00283363e+02
921             	3.00283366e+02
922             	3.00283367e+02
923             	3.00283370e+02
924             	3.00283371e+02
925             	3.00283370e+02
926             	3.00283373e+02
927             	3.00283375e+02
928             	3.00283375e+02
929             	3.00283377e+02
930             	3.00283378e+02
931             	3.00283379e+02
932             	3.00283380e+02
933             	3.00283381e+02