# Region        : cellZone fluid
# Cells         : 9613
# Volume        : 1.86417040e+01
# Time          	volAverage(T)
1               	2.99999904e+02
2               	2.99999934e+02
3               	3.00000363e+02
4               	3.00001029e+02
5               	3.00001429e+02
6               	3.00001926e+02
7               	3.00002471e+02
8               	3.00003384e+02
9               	3.00004162e+02
10              	3.00005155e+02
11              	3.00006359e+02
12              	3.00007530e+02
13              	3.00008432e+02
14              	3.00009515e+02
15              	3.00010968e+02
16              	3.00012313e+02
17              	3.00013103e+02
18              	3.00014120e+02
19              	3.00015523e+02
20              	3.00017037e+02
21              	3.00018690e+02
22              	3.00020595e+02
23              	3.00021838e+02
24              	3.00023443e+02
25              	3.00025156e+02
26              	3.00027039e+02
27              	3.00028223e+02
28              	3.00029672e+02
29              	3.00031747e+02
30              	3.00033731e+02
31              	3.00035297e+02
32              	3.00036741e+02
33              	3.00038568e+02
34              	3.00040205e+02
35              	3.00041338e+02
36              	3.00043028e+02
37              	3.00044545e+02
38              	3.00045606e+02
39              	3.00047196e+02
40              	3.00048385e+02
41              	3.00049397e+02
42              	3.00050634e+02
43              	3.00051975e+02
44              	3.00053518e+02
45              	3.00055178e+02
46              	3.00056897e+02
47              	3.00058583e+02
48              	3.00060513e+02
49              	3.00061988e+02
50              	3.00063218e+02
51              	3.00065352e+02
52              	3.00067027e+02
53              	3.00068751e+02
54              	3.00069355e+02
55              	3.00070623e+02
56              	3.00072111e+02
57              	3.00074133e+02
58              	3.00076171e+02
59              	3.00077572e+02
60              	3.00078813e+02
61              	3.00080273e+02
62              	3.00082026e+02
63              	3.00082938e+02
64              	3.00084306e+02
65              	3.00086033e+02
66              	3.00087547e+02
67              	3.00088783e+02
68              	3.00090197e+02
69              	3.00091653e+02
70              	3.00093497e+02
71              	3.00095100e+02
72              	3.00096756e+02
73              	3.00099397e+02
74              	3.00100609e+02
75              	3.00102058e+02
76              	3.00103004e+02
77              	3.00104524e+02
78              	3.00105137e+02
79              	3.00105958e+02
80              	3.00107151e+02
81              	3.00108584e+02
82              	3.00109746e+02
83              	3.00110786e+02
84              	3.00112403e+02
85              	3.00114014e+02
86              	3.00115017e+02
87              	3.00115623e+02
88              	3.00116500e+02
89              	3.00117100e+02
90              	3.00118003e+02
91              	3.00118855e+02
92              	3.00119415e+02
93              	3.00120736e+02
94              	3.00121890e+02
95              	3.00122936e+02
96              	3.00123576e+02
97              	3.00124291e+02
98              	3.00125329e+02
99              	3.00126018e+02
100             	3.00126511e+02
101             	3.00126743e+02
102             	3.00127087e+02
103             	3.00128686e+02
104             	3.00129221e+02
105             	3.00129587e+02
106             	3.00130126e+02
107             	3.00130835e+02
108             	3.00131647e+02
109             	3.00132579e+02
110             	3.00133345e+02
111             	3.00134430e+02
112             	3.00135582e+02
113             	3.00136397e+02
114             	3.00137703e+02
115             	3.00138752e+02
116             	3.00139559e+02
117             	3.00139954e+02
118             	3.00140201e+02
119             	3.00140522e+02
120             	3.00140953e+02
121             	3.00141194e+02
122             	3.00141435e+02
123             	3.00141950e+02
124             	3.00142895e+02
125             	3.00143254e+02
126             	3.00143348e+02
127             	3.00143603e+02
128             	3.00144013e+02
129             	3.00144442e+02
130             	3.00144839e+02
131             	3.00145168e+02
132             	3.00145757e+02
133             	3.00146585e+02
134             	3.00146907e+02
135             	3.00147349e+02
136             	3.00148205e+02
137             	3.00149474e+02
138             	3.00149514e+02
139             	3.00149604e+02
140             	3.00149801e+02
141             	3.00150078e+02
142             	3.00150510e+02
143             	3.00151016e+02
144             	3.00151275e+02
145             	3.00151486e+02
146             	3.00152126e+02
147             	3.00152475e+02
148             	3.00152848e+02
149             	3.00153373e+02
150             	3.00153943e+02
151             	3.00154254e+02
152             	3.00155363e+02
153             	3.00155208e+02
154             	3.00155320e+02
155             	3.00155068e+02
156             	3.00155172e+02
157             	3.00155350e+02
158             	3.00155564e+02
159             	3.00155745e+02
160             	3.00155839e+02
161             	3.00155803e+02
162             	3.00156391e+02
163             	3.00157054e+02
164             	3.00157233e+02
165             	3.00157629e+02
166             	3.00157979e+02
167             	3.00158185e+02
168             	3.00158275e+02
169             	3.00158464e+02
170             	3.00158732e+02
171             	3.00158977e+02
172             	3.00159247e+02
173             	3.00159482e+02
174             	3.00159696e+02
175             	3.00159939e+02
176             	3.00160192e+02
177             	3.00160612e+02
178             	3.00161180e+02
179             	3.00161416e+02
180             	3.00161553e+02
181             	3.00161886e+02
182             	3.00162165e+02
183             	3.00162448e+02
184             	3.00162744e+02
185             	3.00163009e+02
186             	3.00163190e+02
187             	3.00163636e+02
188             	3.00163958e+02
189             	3.00164154e+02
190             	3.00164116e+02
191             	3.00164255e+02
192             	3.00164210e+02
193             	3.00164584e+02
194             	3.00164747e+02
195             	3.00164413e+02
196             	3.00164244e+02
197             	3.00164265e+02
198             	3.00164586e+02
199             	3.00164678e+02
200             	3.00164742e+02
201             	3.00164993e+02
202             	3.00165168e+02
203             	3.00165410e+02
204             	3.00165797e+02
205             	3.00166057e+02
206             	3.00166201e+02
207             	3.00166800e+02
208             	3.00166970e+02
209             	3.00166752e+02
210             	3.00166839e+02
211             	3.00166820e+02
212             	3.00167065e+02
213             	3.00167428e+02
214             	3.00167846e+02
215             	3.00167787e+02
216             	3.00168414e+02
217             	3.00168593e+02
218             	3.00168468e+02
219             	3.00168967e+02
220             	3.00169317e+02
221             	3.00169394e+02
222             	3.00169215e+02
223             	3.00169073e+02
224             	3.00168989e+02
225             	3.00169204e+02
226             	3.00169506e+02
227             	3.00169173e+02
228             	3.00169162e+02
229             	3.00169347e+02
230             	3.00169683e+02
231             	3.00170078e+02
232             	3.00170146e+02
233             	3.00169960e+02
234             	3.00170559e+02
235             	3.00170566e+02
236             	3.00170798e+02
237             	3.00171012e+02
238             	3.00170801e+02
239             	3.00171028e+02
240             	3.00171718e+02
241             	3.00171369e+02
242             	3.00171109e+02
243             	3.00170979e+02
244             	3.00170923e+02
245             	3.00170972e+02
246             	3.00171184e+02
247             	3.00171455e+02
248             	3.00171709e+02
249             	3.00171895e+02
250             	3.00172062e+02
251             	3.00172124e+02
252             	3.00171993e+02
253             	3.00171579e+02
254             	3.00172026e+02
255             	3.00172212e+02
256             	3.00172217e+02
257             	3.00171913e+02
258             	3.00172209e+02
259             	3.00172679e+02
260             	3.00172213e+02
261             	3.00171999e+02
262             	3.00171928e+02
263             	3.00172079e+02
264             	3.00172324e+02
265             	3.00172462e+02
266             	3.00172272e+02
267             	3.00172354e+02
268             	3.00172568e+02
269             	3.00173060e+02
270             	3.00173389e+02
271             	3.00173680e+02
272             	3.00173739e+02
273             	3.00173513e+02
274             	3.00173714e+02
275             	3.00173745e+02
276             	3.00173676e+02
277             	3.00173652e+02
278             	3.00173652e+02
279             	3.00173859e+02
280             	3.00173958e+02
281             	3.00174123e+02
282             	3.00174133e+02
283             	3.00173964e+02
284             	3.00174137e+02
285             	3.00174080e+02
286             	3.00173976e+02
287             	3.00173861e+02
288             	3.00174004e+02
289             	3.00174148e+02
290             	3.00174135e+02
291             	3.00174072e+02
292             	3.00173970e+02
293             	3.00173978e+02
294             	3.00173949e+02
295             	3.00173734e+02
296             	3.00173824e+02
297             	3.00173827e+02
298             	3.00173723e+02
299             	3.00173711e+02
300             	3.00173753e+02
301             	3.00173793e+02
302             	3.00174021e+02
303             	3.00174393e+02
304             	3.00174659e+02
305             	3.00174898e+02
306             	3.00175064e+02
307             	3.00174942e+02
308             	3.00174977e+02
309             	3.00174870e+02
310             	3.00174876e+02
311             	3.00174795e+02
312             	3.00174563e+02
313             	3.00174799e+02
314             	3.00174576e+02
315             	3.00174498e+02
316             	3.00174470e+02
317             	3.00174471e+02
318             	3.00174495e+02
319             	3.00174472e+02
320             	3.00174444e+02
321             	3.00174331e+02
322             	3.00174424e+02
323             	3.00174454e+02
324             	3.00174475e+02
325             	3.00174551e+02
326             	3.00174652e+02
327             	3.00174739e+02
328             	3.00174813e+02
329             	3.00174847e+02
330             	3.00174868e+02
331             	3.00174902e+02
332             	3.00174947e+02
333             	3.00174995e+02
334             	3.00175042e+02
335             	3.00175074e+02
336             	3.00175055e+02
337             	3.00175014e+02
338             	3.00174952e+02
339             	3.00175000e+02
340             	3.00174881e+02
341             	3.00174813e+02
342             	3.00174781e+02
343             	3.00174769e+02
344             	3.00174775e+02
345             	3.00174790e+02
346             	3.00174796e+02
347             	3.00174802e+02
348             	3.00174783e+02
349             	3.00174795e+02
350             	3.00174802e+02
351             	3.00174792e+02
352             	3.00174793e+02
353             	3.00174801e+02
354             	3.00174813e+02
355             	3.00174830e+02
356             	3.00174876e+02
357             	3.00174928e+02
358             	3.00174866e+02
359             	3.00174971e+02
360             	3.00175030e+02
361             	3.00175053e+02
362             	3.00175052e+02
363             	3.00175090e+02
364             	3.00175114e+02
365             	3.00175128e+02
366             	3.00175109e+02
367             	3.00175117e+02
368             	3.00175131e+02
369             	3.00175100e+02
370             	3.00175123e+02
371             	3.00175024e+02
372             	3.00175005e+02
373             	3.00175032e+02
374             	3.00175076e+02
375             	3.00175098e+02
376             	3.00175118e+02
377             	3.00175172e+02
378             	3.00175201e+02
379             	3.00175173e+02
380             	3.00175288e+02
381             	3.00175342e+02
382             	3.00175356e+02
383             	3.00175302e+02
384             	3.00175363e+02
385             	3.00175378e+02
386             	3.00175416e+02
387             	3.00175442e+02
388             	3.00175458e+02
389             	3.00175371e+02
390             	3.00175389e+02
391             	3.00175396e+02
392             	3.00175303e+02
393             	3.00175267e+02
394             	3.00175257e+02
395             	3.00175318e+02
396             	3.00175422e+02
397             	3.00175386e+02
398             	3.00175376e+02
399             	3.00175340e+02
400             	3.00175382e+02
401             	3.00175409e+02
402             	3.00175408e+02
403             	3.00175362e+02
404             	3.00175392e+02
405             	3.00175298e+02
406             	3.00175341e+02
407             	3.00175333e+02
408             	3.00175294e+02
409             	3.00175262e+02
410             	3.00175251e+02
411             	3.00175221e+02
412             	3.00175180e+02
413             	3.00175130e+02
414             	3.00175073e+02
415             	3.00175054e+02
416             	3.00175090e+02
417             	3.00175037e+02
418             	3.00175008e+02
419             	3.00175010e+02
420             	3.00175031e+02
421             	3.00174985e+02
422             	3.00174996e+02
423             	3.00174997e+02
424             	3.00175007e+02
425             	3.00175029e+02
426             	3.00175069e+02
427             	3.00175108e+02
428             	3.00175164e+02
429             	3.00175207e+02
430             	3.00175224e+02
431             	3.00175340e+02
432             	3.00175383e+02
433             	3.00175389e+02
434             	3.00175291e+02
435             	3.00175184e+02
436             	3.00175168e+02
437             	3.00175093e+02
438             	3.00175118e+02
439             	3.00175043e+02
440             	3.00175000e+02
441             	3.00174954e+02
442             	3.00174972e+02
443             	3.00174910e+02
444             	3.00174888e+02
445             	3.00174853e+02
446             	3.00174842e+02
447             	3.00174848e+02
448             	3.00174865e+02
449             	3.00174889e+02
450             	3.00174913e+02
451             	3.00174943e+02
452             	3.00175022e+02
453             	3.00175065e+02
454             	3.00175142e+02
455             	3.00175162e+02
456             	3.00175187e+02
457             	3.00175199e+02
458             	3.00175302e+02
459             	3.00175349e+02
460             	3.00175356e+02
461             	3.00175346e+02
462             	3.00175347e+02
463             	3.00175326e+02
464             	3.00175345e+02
465             	3.00175278e+02
466             	3.00175239e+02
467             	3.00175176e+02
468             	3.00175139e+02
469             	3.00175098e+02
470             	3.00175076e+02
471             	3.00175061e+02
472             	3.00175052e+02
473             	3.00175058e+02
474             	3.00175058e+02
475             	3.00175079e+02
476             	3.00175100e+02
477             	3.00175103e+02
478             	3.00175148e+02
479             	3.00175183e+02
480             	3.00175197e+02
481             	3.00175211e+02
482             	3.00175247e+02
483             	3.00175327e+02
484             	3.00175361e+02
485             	3.00175410e+02
486             	3.00175445e+02
487             	3.00175529e+02
488             	3.00175568e+02
489             	3.00175606e+02
490             	3.00175638e+02
491             	3.00175671e+02
492             	3.00175663e+02
493             	3.00175657e+02
494             	3.00175581e+02
495             	3.00175571e+02
496             	3.00175556e+02
497             	3.00175561e+02
498             	3.00175543e+02
499             	3.00175505e+02
500             	3.00175456e+02
501             	3.00175408e+02
502             	3.00175382e+02
503             	3.00175303e+02
504             	3.00175247e+02
505             	3.00175212e+02
506             	3.00175186e+02
507             	3.00175172e+02
508             	3.00175285e+02
509             	3.00175300e+02
510             	3.00175329e+02
511             	3.00175379e+02
512             	3.00175428e+02
513             	3.00175481e+02
514             	3.00175529e+02
515             	3.00175602e+02
516             	3.00175559e+02
517             	3.00175633e+02
518             	3.00175663e+02
519             	3.00175683e+02
520             	3.00175727e+02
521             	3.00175724e+02
522             	3.00175698e+02
523             	3.00175662e+02
524             	3.00175670e+02
525             	3.00175621e+02
526             	3.00175546e+02
527             	3.00175470e+02
528             	3.00175396e+02
529             	3.00175346e+02
530             	3.00175288e+02
531             	3.00175227e+02
532             	3.00175160e+02
533             	3.00175090e+02
534             	3.00175050e+02
535             	3.00175015e+02
536             	3.00175005e+02
537             	3.00175019e+02
538             	3.00175044e+02
539             	3.00175085e+02
540             	3.00175138e+02
541             	3.00175194e+02
542             	3.00175238e+02
543             	3.00175293e+02
544             	3.00175375e+02
545             	3.00175488e+02
546             	3.00175474e+02
547             	3.00175565e+02
548             	3.00175637e+02
549             	3.00175672e+02
550             	3.00175658e+02
551             	3.00175621e+02
552             	3.00175495e+02
553             	3.00175517e+02
554             	3.00175485e+02
555             	3.00175404e+02
556             	3.00175333e+02
557             	3.00175355e+02
558             	3.00175391e+02
559             	3.00175192e+02
560             	3.00175113e+02
561             	3.00175075e+02
562             	3.00175040e+02
563             	3.00175010e+02
564             	3.00174999e+02
565             	3.00174923e+02
566             	3.00175012e+02
567             	3.00175024e+02
568             	3.00175035e+02
569             	3.00175075e+02
570             	3.00175136e+02
571             	3.00175206e+02
572             	3.00175228e+02
573             	3.00175294e+02
574             	3.00175359e+02
575             	3.00175418e+02
576             	3.00175476e+02
577             	3.00175468e+02
578             	3.00175567e+02
579             	3.00175628e+02
580             	3.00175748e+02
581             	3.00175768e+02
582             	3.00175755e+02
583             	3.00175706e+02
584             	3.00175644e+02
585             	3.00175577e+02
586             	3.00175539e+02
587             	3.00175481e+02
588             	3.00175416e+02
589             	3.00175342e+02
590             	3.00175270e+02
591             	3.00175220e+02
592             	3.00175179e+02
593             	3.00175201e+02
594             	3.00175130e+02
595             	3.00175156e+02
596             	3.00175021e+02
597             	3.00175016e+02
598             	3.00175041e+02
599             	3.00175057e+02
600             	3.00175022e+02
601             	3.00175038e+02
602             	3.00175120e+02
603             	3.00175180e+02
604             	3.00175254e+02
605             	3.00175327e+02
606             	3.00175393e+02
607             	3.00175478e+02
608             	3.00175539e+02
609             	3.00175541e+02
610             	3.00175498e+02
611             	3.00175504e+02
612             	3.00175427e+02
613             	3.00175428e+02
614             	3.00175371e+02
615             	3.00175299e+02
616             	3.00175245e+02
617             	3.00175154e+02
618             	3.00175073e+02
619             	3.00175014e+02
620             	3.00174973e+02
621             	3.00174933e+02
622             	3.00174906e+02
623             	3.00174880e+02
624             	3.00174861e+02
625             	3.00174839e+02
626             	3.00174829e+02
627             	3.00174835e+02
628             	3.00174856e+02
629             	3.00174908e+02
630             	3.00174976e+02
631             	3.00175041e+02
632             	3.00175104e+02
633             	3.00175160e+02
634             	3.00175238e+02
635             	3.00175310e+02
636             	3.00175375e+02
637             	3.00175428e+02
638             	3.00175501e+02
639             	3.00175545e+02
640             	3.00175573e+02
641             	3.00175577e+02
642             	3.00175592e+02
643             	3.00175540e+02
644             	3.00175496e+02
645             	3.00175440e+02
646             	3.00175385e+02
647             	3.00175331e+02
648             	3.00175275e+02
649             	3.00175220e+02
650             	3.00175152e+02
651             	3.00175075e+02
652             	3.00174996e+02
653             	3.00174926e+02
654             	3.00174872e+02
655             	3.00174809e+02
656             	3.00174761e+02
657             	3.00174718e+02
658             	3.00174691e+02
659             	3.00174745e+02
660             	3.00174764e+02
661             	3.00174790e+02
662             	3.00174829e+02
663             	3.00174944e+02
664             	3.00174985e+02
665             	3.00175022e+02
666             	3.00175101e+02
667             	3.00175180e+02
668             	3.00175246e+02
669             	3.00175290e+02
670             	3.00175264e+02
671             	3.00175330e+02
672             	3.00175334e+02
673             	3.00175353e+02
674             	3.00175348e+02
675             	3.00175324e+02
676             	3.00175295e+02
677             	3.00175251e+02
678             	3.00175198e+02
679             	3.00175139e+02
680             	3.00175076e+02
681             	3.00175013e+02
682             	3.00174950e+02
683             	3.00174888e+02
684             	3.00174834e+02
685             	3.00174782e+02
686             	3.00174774e+02
687             	3.00174755e+02
688             	3.00174756e+02
689             	3.00174761e+02
690             	3.00174785e+02
691             	3.00174838e+02
692             	3.00174890e+02
693             	3.00174937e+02
694             	3.00174984e+02
695             	3.00175031e+02
696             	3.00175102e+02
697             	3.00175144e+02
698             	3.00175168e+02
699             	3.00175175e+02
700             	3.00175209e+02
701             	3.00175226e+02
702             	3.00175178e+02
703             	3.00175207e+02
704             	3.00175198e+02
705             	3.00175169e+02
706             	3.00175091e+02
707             	3.00175056e+02
708             	3.00175005e+02
709             	3.00174938e+02
710             	3.00174872e+02
711             	3.00174808e+02
712             	3.00174754e+02
713             	3.00174702e+02
714             	3.00174676e+02
715             	3.00174690e+02
716             	3.00174686e+02
717             	3.00174691e+02
718             	3.00174699e+02
719             	3.00174715e+02
720             	3.00174746e+02
721             	3.00174801e+02
722             	3.00174860e+02
723             	3.00174897e+02
724             	3.00174946e+02
725             	3.00175019e+02
726             	3.00175086e+02
727             	3.00175138e+02
728             	3.00175185e+02
729             	3.00175226e+02
730             	3.00175186e+02
731             	3.00175238e+02
732             	3.00175254e+02
733             	3.00175257e+02
734             	3.00175223e+02
735             	3.00175146e+02
736             	3.00175069e+02
737             	3.00174986e+02
738             	3.00174900e+02
739             	3.00174815e+02
740             	3.00174737e+02
741             	3.00174659e+02
742             	3.00174584e+02
743             	3.00174634e+02
744             	3.00174575e+02
745             	3.00174532e+02
746             	3.00174511e+02
747             	3.00174503e+02
748             	3.00174507e+02
749             	3.00174540e+02
750             	3.00174583e+02
751             	3.00174619e+02
752             	3.00174646e+02
753             	3.00174717e+02
754             	3.00174785e+02
755             	3.00174837e+02
756             	3.00174891e+02
757             	3.00174937e+02
758             	3.00175010e+02
759             	3.00175057e+02
760             	3.00175088e+02
761             	3.00175079e+02
762             	3.00175068e+02
763             	3.00175061e+02
764             	3.00175044e+02
765             	3.00174931e+02
766             	3.00174914e+02
767             	3.00174850e+02
768             	3.00174768e+02
769             	3.00174677e+02
770             	3.00174591e+02
771             	3.00174513e+02
772             	3.00174508e+02
773             	3.00174427e+02
774             	3.00174486e+02
775             	3.00174446e+02
776             	3.00174438e+02
777             	3.00174455e+02
778             	3.00174516e+02
779             	3.00174573e+02
780             	3.00174629e+02
781             	3.00174692e+02
782             	3.00174779e+02
783             	3.00174871e+02
784             	3.00174874e+02
785             	3.00174957e+02
786             	3.00175025e+02
787             	3.00175079e+02
788             	3.00175121e+02
789             	3.00175153e+02
790             	3.00175178e+02
791             	3.00175183e+02
792             	3.00175174e+02
793             	3.00175147e+02
794             	3.00175100e+02
795             	3.00175047e+02
796             	3.00174979e+02
797             	3.00174904e+02
798             	3.00174831e+02
799             	3.00174765e+02
800             	3.00174730e+02
801             	3.00174721e+02
802             	3.00174648e+02
803             	3.00174593e+02
804             	3.00174574e+02
805             	3.00174559e+02
806             	3.00174547e+02
807             	3.00174544e+02
808             	3.00174560e+02
809             	3.00174589e+02
810             	3.00174651e+02
811             	3.00174695e+02
812             	3.00174751e+02
813             	3.00174808e+02
814             	3.00174893e+02
815             	3.00174955e+02
816             	3.00175005e+02
817             	3.00175052e+02
818             	3.00175090e+02
819             	3.00175121e+02
820             	3.00175168e+02
821             	3.00175206e+02
822             	3.00175186e+02
823             	3.00175162e+02
824             	3.00175142e+02
825             	3.00175126e+02
826             	3.00175096e+02
827             	3.00175050e+02
828             	3.00174999e+02
829             	3.00174957e+02
830             	3.00174905e+02
831             	3.00174851e+02
832             	3.00174805e+02
833             	3.00174765e+02
834             	3.00174736e+02
835             	3.00174712e+02
836             	3.00174722e+02
837             	3.00174734e+02
838             	3.00174737e+02
839             	3.00174817e+02
840             	3.00174846e+02
841             	3.00174888e+02
842             	3.00174933e+02
843             	3.00174975e+02
844             	3.00175021e+02
845             	3.00175089e+02
846             	3.00175124e+02
847             	3.00175159e+02
848             	3.00175194e+02
849             	3.00175224e+02
850             	3.00175193e+02
851             	3.00175258e+02
852             	3.00175277e+02
853             	3.00175253e+02
854             	3.00175217e+02
855             	3.00175190e+02
856             	3.00175145e+02
857             	3.00175083e+02
858             	3.00175021e+02
859             	3.00174946e+02
860             	3.00174859e+02
861             	3.00174782e+02
862             	3.00174756e+02
863             	3.00174785e+02
864             	3.00174742e+02
865             	3.00174712e+02
866             	3.00174698e+02
867             	3.00174691e+02
868             	3.00174689e+02
869             	3.00174713e+02
870             	3.00174759e+02
871             	3.00174814e+02
872             	3.00174872e+02
873             	3.00174961e+02
874             	3.00175049e+02
875             	3.00175126e+02
876             	3.00175195e+02
877             	3.00175274e+02
878             	3.00175337e+02
879             	3.00175360e+02
880             	3.00175324e+02
881             	3.00175284e+02
882             	3.00175297e+02
883             	3.00175286e+02
884             	3.00175257e+02
885             	3.00175207e+02
886             	3.00175152e+02
887             	3.00175077e+02
888             	3.00175005e+02
889             	3.00174922e+02
890             	3.00174847e+02
891             	3.00174753e+02
892             	3.00174762e+02
893             	3.00174694e+02
894             	3.00174649e+02
895             	3.00174681e+02
896             	3.00174662e+02
897             	3.00174665e+02
898             	3.00174685e+02
899             	3.00174739e+02
900             	3.00174801e+02
901             	3.00174860e+02
902             	3.00174929e+02
903             	3.00175000e+02
904             	3.00175080e+02
905             	3.00175164e+02
906             	3.00175240e+02
907             	3.00175308e+02
908             	3.00175371e+02
909             	3.00175424e+02
910             	3.00175416e+02
911             	3.00175444e+02
912             	3.00175459e+02
913             	3.00175462e+02
914             	3.00175433e+02
915             	3.00175387e+02
916             	3.00175331e+02
917             	3.00175262e+02
918             	3.00175190e+02
919             	3.00175116e+02
920             	3.00175045e+02
921             	3.00174975e+02
922             	3.00174901e+02
923             	3.00174868e+02
924             	3.00174857e+02
925             	3.00174834e+02
926             	3.00174821e+02
927             	3.00174820e+02
928             	3.00174890e+02
929             	3.00174914e+02
930             	3.00174942e+02
931             	3.00174983e+02
932             	3.00175057e+02
933             	3.00175125e+02