# Region        : cellZone pcb
# Cells         : 635
# Volume        : 1.24239279e+00
# Time          	volAverage(T)
1               	3.00004442e+02
2               	3.00012878e+02
3               	3.00024414e+02
4               	3.00039122e+02
5               	3.00055835e+02
6               	3.00074959e+02
7               	3.00096447e+02
8               	3.00119766e+02
9               	3.00145140e+02
10              	3.00173220e+02
11              	3.00203258e+02
12              	3.00233512e+02
13              	3.00264684e+02
14              	3.00298432e+02
15              	3.00333987e+02
16              	3.00371378e+02
17              	3.00409694e+02
18              	3.00449469e+02
19              	3.00490043e+02
20              	3.00532126e+02
21              	3.00574460e+02
22              	3.00617784e+02
23              	3.00662032e+02
24              	3.00706618e+02
25              	3.00751545e+02
26              	3.00797118e+02
27              	3.00843721e+02
28              	3.00891599e+02
29              	3.00940004e+02
30              	3.00988846e+02
31              	3.01038058e+02
32              	3.01087750e+02
33              	3.01138264e+02
34              	3.01189047e+02
35              	3.01240451e+02
36              	3.01292586e+02
37              	3.01344422e+02
38              	3.01396742e+02
39              	3.01449836e+02
40              	3.01503513e+02
41              	3.01557951e+02
42              	3.01612700e+02
43              	3.01667999e+02
44              	3.01723463e+02
45              	3.01779239e+02
46              	3.01835106e+02
47              	3.01891162e+02
48              	3.01947061e+02
49              	3.02002774e+02
50              	3.02058451e+02
51              	3.02113879e+02
52              	3.02168625e+02
53              	3.02223779e+02
54              	3.02278994e+02
55              	3.02334298e+02
56              	3.02389813e+02
57              	3.02445793e+02
58              	3.02501919e+02
59              	3.02558296e+02
60              	3.02614928e+02
61              	3.02671572e+02
62              	3.02728323e+02
63              	3.02784917e+02
64              	3.02841630e+02
65              	3.02898624e+02
66              	3.02955785e+02
67              	3.03013028e+02
68              	3.03069968e+02
69              	3.03126723e+02
70              	3.03183057e+02
71              	3.03239117e+02
72              	3.03294825e+02
73              	3.03349956e+02
74              	3.03404631e+02
75              	3.03459012e+02
76              	3.03513313e+02
77              	3.03567684e+02
78              	3.03622011e+02
79              	3.03675995e+02
80              	3.03729599e+02
81              	3.03783282e+02
82              	3.03836900e+02
83              	3.03890466e+02
84              	3.03943782e+02
85              	3.03996856e+02
86              	3.04049919e+02
87              	3.04102767e+02
88              	3.04155546e+02
89              	3.04207893e+02
90              	3.04259836e+02
91              	3.04311189e+02
92              	3.04362024e+02
93              	3.04412749e+02
94              	3.04463108e+02
95              	3.04512637e+02
96              	3.04561687e+02
97              	3.04610535e+02
98              	3.04659426e+02
99              	3.04708303e+02
100             	3.04756807e+02
101             	3.04804796e+02
102             	3.04852269e+02
103             	3.04899646e+02
104             	3.04946741e+02
105             	3.04993345e+02
106             	3.05039469e+02
107             	3.05085088e+02
108             	3.05130368e+02
109             	3.05175421e+02
110             	3.05220029e+02
111             	3.05264899e+02
112             	3.05309281e+02
113             	3.05352301e+02
114             	3.05395216e+02
115             	3.05437850e+02
116             	3.05480155e+02
117             	3.05522451e+02
118             	3.05564599e+02
119             	3.05606653e+02
120             	3.05648279e+02
121             	3.05689383e+02
122             	3.05729933e+02
123             	3.05771263e+02
124             	3.05812018e+02
125             	3.05851378e+02
126             	3.05890285e+02
127             	3.05928585e+02
128             	3.05966407e+02
129             	3.06003725e+02
130             	3.06040705e+02
131             	3.06077380e+02
132             	3.06113721e+02
133             	3.06150124e+02
134             	3.06186313e+02
135             	3.06222263e+02
136             	3.06258012e+02
137             	3.06293517e+02
138             	3.06328507e+02
139             	3.06363053e+02
140             	3.06397119e+02
141             	3.06430738e+02
142             	3.06464300e+02
143             	3.06497441e+02
144             	3.06530143e+02
145             	3.06562554e+02
146             	3.06594658e+02
147             	3.06626381e+02
148             	3.06657731e+02
149             	3.06688932e+02
150             	3.06719693e+02
151             	3.06750094e+02
152             	3.06780194e+02
153             	3.06810019e+02
154             	3.06839622e+02
155             	3.06869012e+02
156             	3.06898065e+02
157             	3.06926806e+02
158             	3.06955251e+02
159             	3.06983451e+02
160             	3.07011296e+02
161             	3.07038747e+02
162             	3.07065914e+02
163             	3.07092854e+02
164             	3.07119467e+02
165             	3.07145952e+02
166             	3.07172133e+02
167             	3.07198014e+02
168             	3.07223675e+02
169             	3.07249104e+02
170             	3.07274232e+02
171             	3.07299021e+02
172             	3.07323372e+02
173             	3.07347339e+02
174             	3.07371034e+02
175             	3.07394476e+02
176             	3.07417662e+02
177             	3.07440807e+02
178             	3.07463603e+02
179             	3.07486037e+02
180             	3.07508278e+02
181             	3.07530195e+02
182             	3.07551900e+02
183             	3.07573339e+02
184             	3.07594579e+02
185             	3.07615619e+02
186             	3.07636453e+02
187             	3.07657048e+02
188             	3.07677417e+02
189             	3.07697505e+02
190             	3.07717342e+02
191             	3.07736934e+02
192             	3.07756320e+02
193             	3.07775408e+02
194             	3.07794393e+02
195             	3.07813080e+02
196             	3.07831578e+02
197             	3.07849951e+02
198             	3.07868135e+02
199             	3.07886019e+02
200             	3.07903848e+02
201             	3.07921525e+02
202             	3.07939124e+02
203             	3.07956368e+02
204             	3.07973339e+02
205             	3.07990120e+02
206             	3.08006716e+02
207             	3.08023007e+02
208             	3.08039130e+02
209             	3.08054920e+02
210             	3.08070556e+02
211             	3.08085937e+02
212             	3.08101151e+02
213             	3.08116266e+02
214             	3.08131168e+02
215             	3.08145875e+02
216             	3.08160520e+02
217             	3.08174838e+02
218             	3.08188989e+02
219             	3.08202985e+02
220             	3.08216819e+02
221             	3.08230515e+02
222             	3.08244090e+02
223             	3.08257464e+02
224             	3.08270645e+02
225             	3.08283736e+02
226             	3.08296638e+02
227             	3.08309354e+02
228             	3.08321982e+02
229             	3.08334458e+02
230             	3.08346812e+02
231             	3.08359136e+02
232             	3.08371316e+02
233             	3.08383338e+02
234             	3.08395235e+02
235             	3.08407027e+02
236             	3.08418692e+02
237             	3.08430228e+02
238             	3.08441597e+02
239             	3.08452803e+02
240             	3.08463820e+02
241             	3.08474636e+02
242             	3.08485396e+02
243             	3.08496049e+02
244             	3.08506453e+02
245             	3.08516786e+02
246             	3.08526953e+02
247             	3.08536972e+02
248             	3.08546940e+02
249             	3.08556677e+02
250             	3.08566321e+02
251             	3.08575791e+02
252             	3.08585134e+02
253             	3.08594414e+02
254             	3.08603566e+02
255             	3.08612645e+02
256             	3.08621699e+02
257             	3.08630690e+02
258             	3.08639485e+02
259             	3.08648129e+02
260             	3.08656728e+02
261             	3.08665229e+02
262             	3.08673685e+02
263             	3.08682116e+02
264             	3.08690442e+02
265             	3.08698637e+02
266             	3.08706740e+02
267             	3.08714841e+02
268             	3.08722658e+02
269             	3.08730360e+02
270             	3.08737892e+02
271             	3.08745371e+02
272             	3.08752778e+02
273             	3.08760105e+02
274             	3.08767361e+02
275             	3.08774613e+02
276             	3.08781809e+02
277             	3.08788943e+02
278             	3.08795944e+02
279             	3.08802885e+02
280             	3.08809714e+02
281             	3.08816430e+02
282             	3.08823062e+02
283             	3.08829618e+02
284             	3.08836112e+02
285             	3.08842544e+02
286             	3.08848920e+02
287             	3.08855227e+02
288             	3.08861473e+02
289             	3.08867674e+02
290             	3.08873805e+02
291             	3.08879871e+02
292             	3.08885871e+02
293             	3.08891826e+02
294             	3.08897701e+02
295             	3.08903501e+02
296             	3.08909249e+02
297             	3.08914947e+02
298             	3.08920590e+02
299             	3.08926159e+02
300             	3.08931640e+02
301             	3.08937033e+02
302             	3.08942338e+02
303             	3.08947577e+02
304             	3.08952746e+02
305             	3.08957857e+02
306             	3.08962913e+02
307             	3.08967912e+02
308             	3.08972857e+02
309             	3.08977743e+02
310             	3.08982580e+02
311             	3.08987360e+02
312             	3.08992097e+02
313             	3.08996791e+02
314             	3.09001439e+02
315             	3.09006067e+02
316             	3.09010667e+02
317             	3.09015232e+02
318             	3.09019749e+02
319             	3.09024213e+02
320             	3.09028602e+02
321             	3.09032937e+02
322             	3.09037252e+02
323             	3.09041554e+02
324             	3.09045817e+02
325             	3.09050093e+02
326             	3.09054226e+02
327             	3.09058245e+02
328             	3.09062195e+02
329             	3.09066101e+02
330             	3.09069973e+02
331             	3.09073792e+02
332             	3.09077565e+02
333             	3.09081296e+02
334             	3.09084984e+02
335             	3.09088632e+02
336             	3.09092235e+02
337             	3.09095804e+02
338             	3.09099328e+02
339             	3.09102806e+02
340             	3.09106250e+02
341             	3.09109662e+02
342             	3.09113046e+02
343             	3.09116402e+02
344             	3.09119732e+02
345             	3.09123037e+02
346             	3.09126312e+02
347             	3.09129569e+02
348             	3.09132777e+02
349             	3.09135944e+02
350             	3.09139075e+02
351             	3.09142176e+02
352             	3.09145248e+02
353             	3.09148337e+02
354             	3.09151370e+02
355             	3.09154359e+02
356             	3.09157322e+02
357             	3.09160279e+02
358             	3.09163184e+02
359             	3.09166036e+02
360             	3.09168846e+02
361             	3.09171649e+02
362             	3.09174399e+02
363             	3.09177121e+02
364             	3.09179811e+02
365             	3.09182469e+02
366             	3.09185088e+02
367             	3.09187653e+02
368             	3.09190184e+02
369             	3.09192682e+02
370             	3.09195165e+02
371             	3.09197628e+02
372             	3.09200073e+02
373             	3.09202494e+02
374             	3.09204877e+02
375             	3.09207233e+02
376             	3.09209557e+02
377             	3.09211855e+02
378             	3.09214128e+02
379             	3.09216388e+02
380             	3.09218606e+02
381             	3.09220826e+02
382             	3.09222992e+02
383             	3.09225130e+02
384             	3.09227252e+02
385             	3.09229360e+02
386             	3.09231451e+02
387             	3.09233525e+02
388             	3.09235575e+02
389             	3.09237605e+02
390             	3.09239616e+02
391             	3.09241607e+02
392             	3.09243574e+02
393             	3.09245519e+02
394             	3.09247443e+02
395             	3.09249345e+02
396             	3.09251224e+02
397             	3.09253078e+02
398             	3.09254908e+02
399             	3.09256714e+02
400             	3.09258496e+02
401             	3.09260260e+02
402             	3.09262002e+02
403             	3.09263722e+02
404             	3.09265424e+02
405             	3.09267110e+02
406             	3.09268783e+02
407             	3.09270446e+02
408             	3.09272098e+02
409             	3.09273741e+02
410             	3.09275371e+02
411             	3.09276986e+02
412             	3.09278589e+02
413             	3.09280180e+02
414             	3.09281758e+02
415             	3.09283322e+02
416             	3.09284874e+02
417             	3.09286411e+02
418             	3.09287929e+02
419             	3.09289430e+02
420             	3.09290910e+02
421             	3.09292369e+02
422             	3.09293808e+02
423             	3.09295229e+02
424             	3.09296630e+02
425             	3.09298013e+02
426             	3.09299376e+02
427             	3.09300718e+02
428             	3.09302042e+02
429             	3.09303347e+02
430             	3.09304633e+02
431             	3.09305903e+02
432             	3.09307153e+02
433             	3.09308386e+02
434             	3.09309607e+02
435             	3.09310820e+02
436             	3.09312024e+02
437             	3.09313222e+02
438             	3.09314415e+02
439             	3.09315601e+02
440             	3.09316777e+02
441             	3.09317946e+02
442             	3.09319107e+02
443             	3.09320259e+02
444             	3.09321401e+02
445             	3.09322530e+02
446             	3.09323646e+02
447             	3.09324750e+02
448             	3.09325841e+02
449             	3.09326919e+02
450             	3.09327983e+02
451             	3.09329032e+02
452             	3.09330068e+02
453             	3.09331090e+02
454             	3.09332097e+02
455             	3.09333091e+02
456             	3.09334071e+02
457             	3.09335038e+02
458             	3.09335990e+02
459             	3.09336928e+02
460             	3.09337852e+02
461             	3.09338763e+02
462             	3.09339658e+02
463             	3.09340539e+02
464             	3.09341407e+02
465             	3.09342265e+02
466             	3.09343118e+02
467             	3.09343969e+02
468             	3.09344816e+02
469             	3.09345657e+02
470             	3.09346493e+02
471             	3.09347325e+02
472             	3.09348150e+02
473             	3.09348970e+02
474             	3.09349786e+02
475             	3.09350596e+02
476             	3.09351403e+02
477             	3.09352198e+02
478             	3.09352992e+02
479             	3.09353768e+02
480             	3.09354525e+02
481             	3.09355269e+02
482             	3.09356007e+02
483             	3.09356740e+02
484             	3.09357471e+02
485             	3.09358200e+02
486             	3.09358925e+02
487             	3.09359644e+02
488             	3.09360355e+02
489             	3.09361048e+02
490             	3.09361725e+02
491             	3.09362390e+02
492             	3.09363042e+02
493             	3.09363681e+02
494             	3.09364315e+02
495             	3.09364946e+02
496             	3.09365570e+02
497             	3.09366190e+02
498             	3.09366808e+02
499             	3.09367411e+02
500             	3.09368013e+02
501             	3.09368620e+02
502             	3.09369225e+02
503             	3.09369824e+02
504             	3.09370415e+02
505             	3.09371009e+02
506             	3.09371599e+02
507             	3.09372167e+02
508             	3.09372728e+02
509             	3.09373278e+02
510             	3.09373828e+02
511             	3.09374373e+02
512             	3.09374915e+02
513             	3.09375453e+02
514             	3.09375997e+02
515             	3.09376533e+02
516             	3.09377070e+02
517             	3.09377603e+02
518             	3.09378130e+02
519             	3.09378655e+02
520             	3.09379169e+02
521             	3.09379666e+02
522             	3.09380145e+02
523             	3.09380620e+02
524             	3.09381087e+02
525             	3.09381539e+02
526             	3.09381980e+02
527             	3.09382415e+02
528             	3.09382844e+02
529             	3.09383264e+02
530             	3.09383676e+02
531             	3.09384089e+02
532             	3.09384495e+02
533             	3.09384905e+02
534             	3.09385309e+02
535             	3.09385708e+02
536             	3.09386115e+02
537             	3.09386528e+02
538             	3.09386949e+02
539             	3.09387372e+02
540             	3.09387798e+02
541             	3.09388221e+02
542             	3.09388639e+02
543             	3.09389044e+02
544             	3.09389436e+02
545             	3.09389822e+02
546             	3.09390205e+02
547             	3.09390581e+02
548             	3.09390955e+02
549             	3.09391328e+02
550             	3.09391685e+02
551             	3.09392028e+02
552             	3.09392364e+02
553             	3.09392685e+02
554             	3.09392995e+02
555             	3.09393298e+02
556             	3.09393601e+02
557             	3.09393903e+02
558             	3.09394203e+02
559             	3.09394507e+02
560             	3.09394819e+02
561             	3.09395127e+02
562             	3.09395430e+02
563             	3.09395735e+02
564             	3.09396040e+02
565             	3.09396343e+02
566             	3.09396647e+02
567             	3.09396954e+02
568             	3.09397264e+02
569             	3.09397571e+02
570             	3.09397876e+02
571             	3.09398178e+02
572             	3.09398478e+02
573             	3.09398773e+02
574             	3.09399064e+02
575             	3.09399352e+02
576             	3.09399634e+02
577             	3.09399903e+02
578             	3.09400166e+02
579             	3.09400423e+02
580             	3.09400680e+02
581             	3.09400934e+02
582             	3.09401184e+02
583             	3.09401433e+02
584             	3.09401673e+02
585             	3.09401913e+02
586             	3.09402153e+02
587             	3.09402390e+02
588             	3.09402616e+02
589             	3.09402854e+02
590             	3.09403087e+02
591             	3.09403302e+02
592             	3.09403519e+02
593             	3.09403740e+02
594             	3.09403952e+02
595             	3.09404164e+02
596             	3.09404378e+02
597             	3.09404594e+02
598             	3.09404818e+02
599             	3.09405043e+02
600             	3.09405259e+02
601             	3.09405490e+02
602             	3.09405712e+02
603             	3.09405914e+02
604             	3.09406102e+02
605             	3.09406304e+02
606             	3.09406518e+02
607             	3.09406733e+02
608             	3.09406947e+02
609             	3.09407165e+02
610             	3.09407371e+02
611             	3.09407565e+02
612             	3.09407760e+02
613             	3.09407952e+02
614             	3.09408132e+02
615             	3.09408296e+02
616             	3.09408460e+02
617             	3.09408625e+02
618             	3.09408787e+02
619             	3.09408949e+02
620             	3.09409115e+02
621             	3.09409270e+02
622             	3.09409436e+02
623             	3.09409610e+02
624             	3.09409789e+02
625             	3.09409970e+02
626             	3.09410148e+02
627             	3.09410328e+02
628             	3.09410504e+02
629             	3.09410669e+02
630             	3.09410826e+02
631             	3.09410982e+02
632             	3.09411138e+02
633             	3.09411292e+02
634             	3.09411446e+02
635             	3.09411596e+02
636             	3.09411752e+02
637             	3.09411909e+02
638             	3.09412068e+02
639             	3.09412227e+02
640             	3.09412387e+02
641             	3.09412546e+02
642             	3.09412703e+02
643             	3.09412856e+02
644             	3.09413002e+02
645             	3.09413144e+02
646             	3.09413283e+02
647             	3.09413422e+02
648             	3.09413559e+02
649             	3.09413695e+02
650             	3.09413825e+02
651             	3.09413951e+02
652             	3.09414073e+02
653             	3.09414194e+02
654             	3.09414315e+02
655             	3.09414435e+02
656             	3.09414558e+02
657             	3.09414682e+02
658             	3.09414808e+02
659             	3.09414940e+02
660             	3.09415077e+02
661             	3.09415214e+02
662             	3.09415342e+02
663             	3.09415476e+02
664             	3.09415614e+02
665             	3.09415750e+02
666             	3.09415882e+02
667             	3.09416009e+02
668             	3.09416133e+02
669             	3.09416255e+02
670             	3.09416373e+02
671             	3.09416491e+02
672             	3.09416605e+02
673             	3.09416714e+02
674             	3.09416824e+02
675             	3.09416929e+02
676             	3.09417032e+02
677             	3.09417140e+02
678             	3.09417242e+02
679             	3.09417340e+02
680             	3.09417437e+02
681             	3.09417535e+02
682             	3.09417634e+02
683             	3.09417734e+02
684             	3.09417839e+02
685             	3.09417949e+02
686             	3.09418064e+02
687             	3.09418181e+02
688             	3.09418298e+02
689             	3.09418422e+02
690             	3.09418547e+02
691             	3.09418671e+02
692             	3.09418798e+02
693             	3.09418928e+02
694             	3.09419056e+02
695             	3.09419180e+02
696             	3.09419304e+02
697             	3.09419428e+02
698             	3.09419553e+02
699             	3.09419675e+02
700             	3.09419794e+02
701             	3.09419909e+02
702             	3.09420021e+02
703             	3.09420133e+02
704             	3.09420242e+02
705             	3.09420350e+02
706             	3.09420458e+02
707             	3.09420566e+02
708             	3.09420673e+02
709             	3.09420775e+02
710             	3.09420882e+02
711             	3.09420989e+02
712             	3.09421096e+02
713             	3.09421203e+02
714             	3.09421310e+02
715             	3.09421418e+02
716             	3.09421526e+02
717             	3.09421634e+02
718             	3.09421741e+02
719             	3.09421845e+02
720             	3.09421950e+02
721             	3.09422056e+02
722             	3.09422162e+02
723             	3.09422266e+02
724             	3.09422367e+02
725             	3.09422468e+02
726             	3.09422568e+02
727             	3.09422668e+02
728             	3.09422771e+02
729             	3.09422871e+02
730             	3.09422971e+02
731             	3.09423073e+02
732             	3.09423191e+02
733             	3.09423295e+02
734             	3.09423390e+02
735             	3.09423480e+02
736             	3.09423569e+02
737             	3.09423647e+02
738             	3.09423727e+02
739             	3.09423807e+02
740             	3.09423880e+02
741             	3.09423964e+02
742             	3.09424055e+02
743             	3.09424145e+02
744             	3.09424232e+02
745             	3.09424317e+02
746             	3.09424402e+02
747             	3.09424490e+02
748             	3.09424569e+02
749             	3.09424643e+02
750             	3.09424716e+02
751             	3.09424789e+02
752             	3.09424861e+02
753             	3.09424931e+02
754             	3.09425001e+02
755             	3.09425080e+02
756             	3.09425164e+02
757             	3.09425249e+02
758             	3.09425337e+02
759             	3.09425426e+02
760             	3.09425513e+02
761             	3.09425600e+02
762             	3.09425685e+02
763             	3.09425770e+02
764             	3.09425855e+02
765             	3.09425938e+02
766             	3.09426018e+02
767             	3.09426098e+02
768             	3.09426174e+02
769             	3.09426249e+02
770             	3.09426322e+02
771             	3.09426387e+02
772             	3.09426445e+02
773             	3.09426497e+02
774             	3.09426543e+02
775             	3.09426586e+02
776             	3.09426625e+02
777             	3.09426662e+02
778             	3.09426697e+02
779             	3.09426732e+02
780             	3.09426767e+02
781             	3.09426802e+02
782             	3.09426840e+02
783             	3.09426877e+02
784             	3.09426919e+02
785             	3.09426965e+02
786             	3.09427014e+02
787             	3.09427062e+02
788             	3.09427114e+02
789             	3.09427171e+02
790             	3.09427229e+02
791             	3.09427288e+02
792             	3.09427347e+02
793             	3.09427401e+02
794             	3.09427451e+02
795             	3.09427498e+02
796             	3.09427542e+02
797             	3.09427586e+02
798             	3.09427627e+02
799             	3.09427667e+02
800             	3.09427707e+02
801             	3.09427745e+02
802             	3.09427783e+02
803             	3.09427821e+02
804             	3.09427859e+02
805             	3.09427900e+02
806             	3.09427939e+02
807             	3.09427975e+02
808             	3.09428008e+02
809             	3.09428040e+02
810             	3.09428074e+02
811             	3.09428108e+02
812             	3.09428142e+02
813             	3.09428179e+02
814             	3.09428221e+02
815             	3.09428268e+02
816             	3.09428318e+02
817             	3.09428370e+02
818             	3.09428423e+02
819             	3.09428480e+02
820             	3.09428537e+02
821             	3.09428596e+02
822             	3.09428655e+02
823             	3.09428712e+02
824             	3.09428766e+02
825             	3.09428818e+02
826             	3.09428871e+02
827             	3.09428922e+02
828             	3.09428969e+02
829             	3.09429011e+02
830             	3.09429052e+02
831             	3.09429089e+02
832             	3.09429122e+02
833             	3.09429153e+02
834             	3.09429180e+02
835             	3.09429208e+02
836             	3.09429236e+02
837             	3.09429268e+02
838             	3.09429301e+02
839             	3.09429336e+02
840             	3.09429373e+02
841             	3.09429410e+02
842             	3.09429451e+02
843             	3.09429494e+02
844             	3.09429537e+02
845             	3.09429580e+02
846             	3.09429623e+02
847             	3.09429663e+02
848             	3.09429705e+02
849             	3.09429751e+02
850             	3.09429798e+02
851             	3.09429847e+02
852             	3.09429895e+02
853             	3.09429942e+02
854             	3.09429988e+02
855             	3.09430033e+02
856             	3.09430075e+02
857             	3.09430115e+02
858             	3.09430153e+02
859             	3.09430187e+02
860             	3.09430221e+02
861             	3.09430252e+02
862             	3.09430284e+02
863             	3.09430315e+02
864             	3.09430346e+02
865             	3.09430376e+02
866             	3.09430407e+02
867             	3.09430439e+02
868             	3.09430473e+02
869             	3.09430509e+02
870             	3.09430546e+02
871             	3.09430586e+02
872             	3.09430628e+02
873             	3.09430672e+02
874             	3.09430716e+02
875             	3.09430761e+02
876             	3.09430806e+02
877             	3.09430850e+02
878             	3.09430891e+02
879             	3.09430933e+02
880             	3.09430973e+02
881             	3.09431012e+02
882             	3.09431049e+02
883             	3.09431085e+02
884             	3.09431119e+02
885             	3.09431151e+02
886             	3.09431182e+02
887             	3.09431210e+02
888             	3.09431237e+02
889             	3.09431261e+02
890             	3.09431284e+02
891             	3.09431306e+02
892             	3.09431326e+02
893             	3.09431345e+02
894             	3.09431363e+02
895             	3.09431381e+02
896             	3.09431399e+02
897             	3.09431415e+02
898             	3.09431432e+02
899             	3.09431448e+02
900             	3.09431463e+02
901             	3.09431477e+02
902             	3.09431491e+02
903             	3.09431506e+02
904             	3.09431522e+02
905             	3.09431538e+02
906             	3.09431555e+02
907             	3.09431573e+02
908             	3.09431591e+02
909             	3.09431610e+02
910             	3.09431629e+02
911             	3.09431647e+02
912             	3.09431665e+02
913             	3.09431682e+02
914             	3.09431699e+02
915             	3.09431717e+02
916             	3.09431733e+02
917             	3.09431747e+02
918             	3.09431762e+02
919             	3.09431776e+02
920             	3.09431788e+02
921             	3.09431800e+02
922             	3.09431811e+02
923             	3.09431822e+02
924             	3.09431832e+02
925             	3.09431843e+02
926             	3.09431855e+02
927             	3.09431871e+02
928             	3.09431888e+02
929             	3.09431908e+02
930             	3.09431928e+02
931             	3.09431945e+02
932             	3.09431960e+02
933             	3.09431973e+02