# Region        : cellZone pcb
# Cells         : 431
# Volume        : 8.67055400e-01
# Time          	volAverage(T)
1               	3.00010492e+02
2               	3.00030190e+02
3               	3.00057701e+02
4               	3.00091478e+02
5               	3.00128849e+02
6               	3.00170980e+02
7               	3.00217563e+02
8               	3.00269253e+02
9               	3.00325116e+02
10              	3.00385481e+02
11              	3.00450875e+02
12              	3.00520436e+02
13              	3.00594345e+02
14              	3.00671191e+02
15              	3.00750551e+02
16              	3.00832689e+02
17              	3.00916092e+02
18              	3.01000707e+02
19              	3.01088606e+02
20              	3.01179159e+02
21              	3.01270090e+02
22              	3.01362913e+02
23              	3.01458481e+02
24              	3.01555117e+02
25              	3.01651533e+02
26              	3.01748749e+02
27              	3.01850225e+02
28              	3.01953425e+02
29              	3.02056528e+02
30              	3.02161012e+02
31              	3.02267376e+02
32              	3.02374839e+02
33              	3.02483201e+02
34              	3.02592927e+02
35              	3.02702197e+02
36              	3.02811013e+02
37              	3.02919298e+02
38              	3.03025833e+02
39              	3.03131524e+02
40              	3.03236535e+02
41              	3.03344264e+02
42              	3.03450355e+02
43              	3.03555821e+02
44              	3.03660684e+02
45              	3.03767179e+02
46              	3.03873896e+02
47              	3.03980197e+02
48              	3.04085918e+02
49              	3.04190252e+02
50              	3.04294353e+02
51              	3.04399666e+02
52              	3.04501757e+02
53              	3.04604035e+02
54              	3.04701698e+02
55              	3.04798264e+02
56              	3.04896362e+02
57              	3.04993868e+02
58              	3.05088372e+02
59              	3.05183637e+02
60              	3.05279355e+02
61              	3.05378826e+02
62              	3.05474837e+02
63              	3.05570142e+02
64              	3.05667200e+02
65              	3.05762544e+02
66              	3.05854543e+02
67              	3.05944682e+02
68              	3.06034958e+02
69              	3.06123521e+02
70              	3.06210984e+02
71              	3.06296122e+02
72              	3.06380975e+02
73              	3.06466319e+02
74              	3.06551885e+02
75              	3.06637789e+02
76              	3.06723658e+02
77              	3.06811845e+02
78              	3.06898384e+02
79              	3.06988710e+02
80              	3.07077053e+02
81              	3.07164122e+02
82              	3.07247194e+02
83              	3.07327253e+02
84              	3.07407699e+02
85              	3.07486699e+02
86              	3.07566380e+02
87              	3.07642120e+02
88              	3.07716248e+02
89              	3.07790258e+02
90              	3.07862663e+02
91              	3.07932945e+02
92              	3.08003179e+02
93              	3.08074497e+02
94              	3.08147071e+02
95              	3.08218240e+02
96              	3.08289492e+02
97              	3.08360017e+02
98              	3.08431645e+02
99              	3.08501046e+02
100             	3.08566707e+02
101             	3.08631509e+02
102             	3.08693546e+02
103             	3.08754537e+02
104             	3.08813278e+02
105             	3.08873012e+02
106             	3.08931140e+02
107             	3.08990450e+02
108             	3.09048935e+02
109             	3.09107640e+02
110             	3.09165514e+02
111             	3.09222611e+02
112             	3.09279959e+02
113             	3.09337280e+02
114             	3.09395591e+02
115             	3.09452498e+02
116             	3.09508476e+02
117             	3.09562379e+02
118             	3.09613173e+02
119             	3.09663563e+02
120             	3.09713482e+02
121             	3.09764340e+02
122             	3.09813794e+02
123             	3.09863637e+02
124             	3.09913056e+02
125             	3.09962778e+02
126             	3.10012613e+02
127             	3.10059116e+02
128             	3.10105204e+02
129             	3.10149298e+02
130             	3.10195154e+02
131             	3.10241837e+02
132             	3.10288676e+02
133             	3.10335941e+02
134             	3.10381665e+02
135             	3.10426864e+02
136             	3.10471810e+02
137             	3.10512234e+02
138             	3.10551657e+02
139             	3.10588860e+02
140             	3.10624758e+02
141             	3.10660541e+02
142             	3.10697482e+02
143             	3.10734884e+02
144             	3.10773772e+02
145             	3.10810969e+02
146             	3.10846754e+02
147             	3.10881535e+02
148             	3.10914905e+02
149             	3.10948020e+02
150             	3.10981157e+02
151             	3.11014840e+02
152             	3.11047981e+02
153             	3.11081641e+02
154             	3.11115003e+02
155             	3.11148245e+02
156             	3.11181068e+02
157             	3.11211326e+02
158             	3.11240301e+02
159             	3.11268066e+02
160             	3.11295228e+02
161             	3.11321670e+02
162             	3.11347694e+02
163             	3.11373355e+02
164             	3.11399010e+02
165             	3.11424455e+02
166             	3.11449527e+02
167             	3.11474395e+02
168             	3.11499034e+02
169             	3.11523444e+02
170             	3.11547932e+02
171             	3.11572014e+02
172             	3.11595467e+02
173             	3.11618588e+02
174             	3.11641866e+02
175             	3.11664728e+02
176             	3.11687248e+02
177             	3.11709465e+02
178             	3.11731094e+02
179             	3.11752342e+02
180             	3.11773065e+02
181             	3.11793195e+02
182             	3.11812893e+02
183             	3.11831902e+02
184             	3.11850437e+02
185             	3.11868499e+02
186             	3.11886204e+02
187             	3.11903637e+02
188             	3.11920853e+02
189             	3.11937781e+02
190             	3.11954583e+02
191             	3.11971203e+02
192             	3.11987409e+02
193             	3.12003701e+02
194             	3.12019828e+02
195             	3.12035765e+02
196             	3.12051343e+02
197             	3.12066721e+02
198             	3.12081720e+02
199             	3.12096530e+02
200             	3.12111217e+02
201             	3.12125473e+02
202             	3.12139425e+02
203             	3.12153071e+02
204             	3.12166501e+02
205             	3.12179692e+02
206             	3.12192683e+02
207             	3.12205489e+02
208             	3.12217688e+02
209             	3.12230047e+02
210             	3.12242207e+02
211             	3.12254325e+02
212             	3.12266200e+02
213             	3.12277827e+02
214             	3.12289175e+02
215             	3.12300305e+02
216             	3.12311243e+02
217             	3.12321983e+02
218             	3.12332362e+02
219             	3.12342608e+02
220             	3.12352476e+02
221             	3.12362204e+02
222             	3.12371684e+02
223             	3.12380968e+02
224             	3.12390192e+02
225             	3.12399200e+02
226             	3.12408158e+02
227             	3.12416905e+02
228             	3.12425480e+02
229             	3.12433956e+02
230             	3.12442261e+02
231             	3.12450438e+02
232             	3.12458452e+02
233             	3.12466315e+02
234             	3.12474010e+02
235             	3.12481548e+02
236             	3.12488932e+02
237             	3.12496144e+02
238             	3.12503211e+02
239             	3.12510030e+02
240             	3.12516765e+02
241             	3.12523279e+02
242             	3.12529702e+02
243             	3.12535964e+02
244             	3.12542136e+02
245             	3.12548211e+02
246             	3.12554147e+02
247             	3.12559989e+02
248             	3.12565721e+02
249             	3.12571352e+02
250             	3.12576911e+02
251             	3.12582377e+02
252             	3.12587738e+02
253             	3.12593045e+02
254             	3.12598279e+02
255             	3.12603420e+02
256             	3.12608460e+02
257             	3.12613339e+02
258             	3.12618197e+02
259             	3.12622869e+02
260             	3.12627460e+02
261             	3.12631888e+02
262             	3.12636237e+02
263             	3.12640445e+02
264             	3.12644569e+02
265             	3.12648573e+02
266             	3.12652483e+02
267             	3.12656271e+02
268             	3.12659947e+02
269             	3.12663523e+02
270             	3.12667030e+02
271             	3.12670449e+02
272             	3.12673792e+02
273             	3.12677051e+02
274             	3.12680269e+02
275             	3.12683419e+02
276             	3.12686509e+02
277             	3.12689540e+02
278             	3.12692529e+02
279             	3.12695427e+02
280             	3.12698299e+02
281             	3.12701081e+02
282             	3.12703846e+02
283             	3.12706522e+02
284             	3.12709138e+02
285             	3.12711680e+02
286             	3.12714152e+02
287             	3.12716558e+02
288             	3.12718905e+02
289             	3.12721160e+02
290             	3.12723354e+02
291             	3.12725470e+02
292             	3.12727546e+02
293             	3.12729534e+02
294             	3.12731471e+02
295             	3.12733343e+02
296             	3.12735167e+02
297             	3.12736934e+02
298             	3.12738657e+02
299             	3.12740334e+02
300             	3.12741975e+02
301             	3.12743576e+02
302             	3.12745142e+02
303             	3.12746657e+02
304             	3.12748169e+02
305             	3.12749607e+02
306             	3.12751020e+02
307             	3.12752383e+02
308             	3.12753729e+02
309             	3.12755027e+02
310             	3.12756300e+02
311             	3.12757523e+02
312             	3.12758712e+02
313             	3.12759848e+02
314             	3.12760952e+02
315             	3.12762007e+02
316             	3.12763024e+02
317             	3.12763976e+02
318             	3.12764928e+02
319             	3.12765831e+02
320             	3.12766714e+02
321             	3.12767552e+02
322             	3.12768370e+02
323             	3.12769133e+02
324             	3.12769866e+02
325             	3.12770552e+02
326             	3.12771211e+02
327             	3.12771830e+02
328             	3.12772433e+02
329             	3.12772997e+02
330             	3.12773564e+02
331             	3.12774080e+02
332             	3.12774598e+02
333             	3.12775086e+02
334             	3.12775573e+02
335             	3.12776042e+02
336             	3.12776509e+02
337             	3.12776945e+02
338             	3.12777388e+02
339             	3.12777807e+02
340             	3.12778222e+02
341             	3.12778617e+02
342             	3.12779009e+02
343             	3.12779379e+02
344             	3.12779737e+02
345             	3.12780088e+02
346             	3.12780422e+02
347             	3.12780740e+02
348             	3.12781025e+02
349             	3.12781314e+02
350             	3.12781568e+02
351             	3.12781814e+02
352             	3.12782030e+02
353             	3.12782233e+02
354             	3.12782408e+02
355             	3.12782569e+02
356             	3.12782702e+02
357             	3.12782820e+02
358             	3.12782915e+02
359             	3.12782998e+02
360             	3.12783062e+02
361             	3.12783112e+02
362             	3.12783146e+02
363             	3.12783172e+02
364             	3.12783186e+02
365             	3.12783193e+02
366             	3.12783194e+02
367             	3.12783189e+02
368             	3.12783181e+02
369             	3.12783165e+02
370             	3.12783140e+02
371             	3.12783109e+02
372             	3.12783069e+02
373             	3.12783024e+02
374             	3.12782973e+02
375             	3.12782918e+02
376             	3.12782858e+02
377             	3.12782789e+02
378             	3.12782723e+02
379             	3.12782648e+02
380             	3.12782570e+02
381             	3.12782482e+02
382             	3.12782393e+02
383             	3.12782299e+02
384             	3.12782203e+02
385             	3.12782099e+02
386             	3.12781991e+02
387             	3.12781877e+02
388             	3.12781760e+02
389             	3.12781635e+02
390             	3.12781508e+02
391             	3.12781374e+02
392             	3.12781241e+02
393             	3.12781092e+02
394             	3.12780947e+02
395             	3.12780791e+02
396             	3.12780635e+02
397             	3.12780470e+02
398             	3.12780300e+02
399             	3.12780125e+02
400             	3.12779944e+02
401             	3.12779767e+02
402             	3.12779583e+02
403             	3.12779397e+02
404             	3.12779209e+02
405             	3.12779026e+02
406             	3.12778833e+02
407             	3.12778647e+02
408             	3.12778455e+02
409             	3.12778273e+02
410             	3.12778082e+02
411             	3.12777901e+02
412             	3.12777713e+02
413             	3.12777531e+02
414             	3.12777345e+02
415             	3.12777161e+02
416             	3.12776976e+02
417             	3.12776791e+02
418             	3.12776603e+02
419             	3.12776423e+02
420             	3.12776239e+02
421             	3.12776060e+02
422             	3.12775877e+02
423             	3.12775697e+02
424             	3.12775514e+02
425             	3.12775333e+02
426             	3.12775147e+02
427             	3.12774962e+02
428             	3.12774774e+02
429             	3.12774584e+02
430             	3.12774391e+02
431             	3.12774201e+02
432             	3.12774008e+02
433             	3.12773819e+02
434             	3.12773628e+02
435             	3.12773441e+02
436             	3.12773253e+02
437             	3.12773067e+02
438             	3.12772881e+02
439             	3.12772698e+02
440             	3.12772514e+02
441             	3.12772333e+02
442             	3.12772152e+02
443             	3.12771973e+02
444             	3.12771797e+02
445             	3.12771623e+02
446             	3.12771451e+02
447             	3.12771283e+02
448             	3.12771113e+02
449             	3.12770944e+02
450             	3.12770774e+02
451             	3.12770606e+02
452             	3.12770439e+02
453             	3.12770273e+02
454             	3.12770107e+02
455             	3.12769944e+02
456             	3.12769784e+02
457             	3.12769627e+02
458             	3.12769474e+02
459             	3.12769322e+02
460             	3.12769171e+02
461             	3.12769023e+02
462             	3.12768876e+02
463             	3.12768734e+02
464             	3.12768591e+02
465             	3.12768450e+02
466             	3.12768310e+02
467             	3.12768173e+02
468             	3.12768037e+02
469             	3.12767903e+02
470             	3.12767769e+02
471             	3.12767641e+02
472             	3.12767513e+02
473             	3.12767389e+02
474             	3.12767267e+02
475             	3.12767147e+02
476             	3.12767028e+02
477             	3.12766911e+02
478             	3.12766796e+02
479             	3.12766684e+02
480             	3.12766573e+02
481             	3.12766465e+02
482             	3.12766358e+02
483             	3.12766253e+02
484             	3.12766150e+02
485             	3.12766048e+02
486             	3.12765948e+02
487             	3.12765850e+02
488             	3.12765754e+02
489             	3.12765659e+02
490             	3.12765566e+02
491             	3.12765476e+02
492             	3.12765389e+02
493             	3.12765305e+02
494             	3.12765223e+02
495             	3.12765144e+02
496             	3.12765066e+02
497             	3.12764992e+02
498             	3.12764920e+02
499             	3.12764849e+02
500             	3.12764780e+02
501             	3.12764713e+02
502             	3.12764648e+02
503             	3.12764584e+02
504             	3.12764522e+02
505             	3.12764462e+02
506             	3.12764406e+02
507             	3.12764351e+02
508             	3.12764298e+02
509             	3.12764247e+02
510             	3.12764200e+02
511             	3.12764154e+02
512             	3.12764110e+02
513             	3.12764068e+02
514             	3.12764028e+02
515             	3.12763989e+02
516             	3.12763951e+02
517             	3.12763916e+02
518             	3.12763884e+02
519             	3.12763854e+02
520             	3.12763826e+02
521             	3.12763800e+02
522             	3.12763777e+02
523             	3.12763754e+02
524             	3.12763733e+02
525             	3.12763713e+02
526             	3.12763693e+02
527             	3.12763677e+02
528             	3.12763662e+02
529             	3.12763650e+02
530             	3.12763639e+02
531             	3.12763631e+02
532             	3.12763626e+02
533             	3.12763622e+02
534             	3.12763621e+02
535             	3.12763622e+02
536             	3.12763625e+02
537             	3.12763629e+02
538             	3.12763634e+02
539             	3.12763641e+02
540             	3.12763647e+02
541             	3.12763657e+02
542             	3.12763666e+02
543             	3.12763678e+02
544             	3.12763690e+02
545             	3.12763705e+02
546             	3.12763721e+02
547             	3.12763739e+02
548             	3.12763758e+02
549             	3.12763780e+02
550             	3.12763803e+02
551             	3.12763828e+02
552             	3.12763856e+02
553             	3.12763884e+02
554             	3.12763915e+02
555             	3.12763947e+02
556             	3.12763982e+02
557             	3.12764017e+02
558             	3.12764052e+02
559             	3.12764091e+02
560             	3.12764129e+02
561             	3.12764170e+02
562             	3.12764211e+02
563             	3.12764254e+02
564             	3.12764298e+02
565             	3.12764344e+02
566             	3.12764392e+02
567             	3.12764442e+02
568             	3.12764493e+02
569             	3.12764545e+02
570             	3.12764598e+02
571             	3.12764652e+02
572             	3.12764706e+02
573             	3.12764762e+02
574             	3.12764818e+02
575             	3.12764876e+02
576             	3.12764934e+02
577             	3.12764997e+02
578             	3.12765059e+02
579             	3.12765123e+02
580             	3.12765188e+02
581             	3.12765254e+02
582             	3.12765323e+02
583             	3.12765394e+02
584             	3.12765466e+02
585             	3.12765540e+02
586             	3.12765614e+02
587             	3.12765691e+02
588             	3.12765768e+02
589             	3.12765847e+02
590             	3.12765927e+02
591             	3.12766009e+02
592             	3.12766091e+02
593             	3.12766175e+02
594             	3.12766260e+02
595             	3.12766347e+02
596             	3.12766435e+02
597             	3.12766524e+02
598             	3.12766614e+02
599             	3.12766704e+02
600             	3.12766796e+02
601             	3.12766890e+02
602             	3.12766984e+02
603             	3.12767079e+02
604             	3.12767171e+02
605             	3.12767270e+02
606             	3.12767368e+02
607             	3.12767470e+02
608             	3.12767571e+02
609             	3.12767674e+02
610             	3.12767778e+02
611             	3.12767882e+02
612             	3.12767987e+02
613             	3.12768091e+02
614             	3.12768196e+02
615             	3.12768302e+02
616             	3.12768408e+02
617             	3.12768515e+02
618             	3.12768622e+02
619             	3.12768729e+02
620             	3.12768836e+02
621             	3.12768944e+02
622             	3.12769053e+02
623             	3.12769164e+02
624             	3.12769274e+02
625             	3.12769387e+02
626             	3.12769500e+02
627             	3.12769613e+02
628             	3.12769728e+02
629             	3.12769843e+02
630             	3.12769960e+02
631             	3.12770078e+02
632             	3.12770197e+02
633             	3.12770315e+02
634             	3.12770434e+02
635             	3.12770554e+02
636             	3.12770675e+02
637             	3.12770795e+02
638             	3.12770916e+02
639             	3.12771038e+02
640             	3.12771159e+02
641             	3.12771281e+02
642             	3.12771402e+02
643             	3.12771524e+02
644             	3.12771646e+02
645             	3.12771768e+02
646             	3.12771890e+02
647             	3.12772013e+02
648             	3.12772137e+02
649             	3.12772262e+02
650             	3.12772387e+02
651             	3.12772513e+02
652             	3.12772640e+02
653             	3.12772768e+02
654             	3.12772898e+02
655             	3.12773028e+02
656             	3.12773159e+02
657             	3.12773291e+02
658             	3.12773424e+02
659             	3.12773557e+02
660             	3.12773691e+02
661             	3.12773826e+02
662             	3.12773962e+02
663             	3.12774099e+02
664             	3.12774236e+02
665             	3.12774374e+02
666             	3.12774513e+02
667             	3.12774652e+02
668             	3.12774791e+02
669             	3.12774931e+02
670             	3.12775071e+02
671             	3.12775211e+02
672             	3.12775352e+02
673             	3.12775493e+02
674             	3.12775636e+02
675             	3.12775778e+02
676             	3.12775920e+02
677             	3.12776063e+02
678             	3.12776206e+02
679             	3.12776350e+02
680             	3.12776494e+02
681             	3.12776638e+02
682             	3.12776782e+02
683             	3.12776927e+02
684             	3.12777072e+02
685             	3.12777219e+02
686             	3.12777365e+02
687             	3.12777513e+02
688             	3.12777662e+02
689             	3.12777811e+02
690             	3.12777960e+02
691             	3.12778111e+02
692             	3.12778260e+02
693             	3.12778413e+02
694             	3.12778565e+02
695             	3.12778719e+02
696             	3.12778872e+02
697             	3.12779027e+02
698             	3.12779181e+02
699             	3.12779336e+02
700             	3.12779492e+02
701             	3.12779648e+02
702             	3.12779804e+02
703             	3.12779961e+02
704             	3.12780118e+02
705             	3.12780275e+02
706             	3.12780433e+02
707             	3.12780591e+02
708             	3.12780748e+02
709             	3.12780906e+02
710             	3.12781064e+02
711             	3.12781222e+02
712             	3.12781380e+02
713             	3.12781538e+02
714             	3.12781696e+02
715             	3.12781854e+02
716             	3.12782012e+02
717             	3.12782169e+02
718             	3.12782325e+02
719             	3.12782483e+02
720             	3.12782640e+02
721             	3.12782799e+02
722             	3.12782957e+02
723             	3.12783117e+02
724             	3.12783276e+02
725             	3.12783437e+02
726             	3.12783598e+02
727             	3.12783760e+02
728             	3.12783922e+02
729             	3.12784085e+02
730             	3.12784248e+02
731             	3.12784412e+02
732             	3.12784576e+02
733             	3.12784740e+02
734             	3.12784903e+02
735             	3.12785068e+02
736             	3.12785232e+02
737             	3.12785397e+02
738             	3.12785561e+02
739             	3.12785725e+02
740             	3.12785888e+02
741             	3.12786051e+02
742             	3.12786213e+02
743             	3.12786375e+02
744             	3.12786537e+02
745             	3.12786698e+02
746             	3.12786859e+02
747             	3.12787020e+02
748             	3.12787181e+02
749             	3.12787342e+02
750             	3.12787503e+02
751             	3.12787665e+02
752             	3.12787827e+02
753             	3.12787989e+02
754             	3.12788150e+02
755             	3.12788314e+02
756             	3.12788477e+02
757             	3.12788642e+02
758             	3.12788806e+02
759             	3.12788971e+02
760             	3.12789135e+02
761             	3.12789301e+02
762             	3.12789467e+02
763             	3.12789633e+02
764             	3.12789800e+02
765             	3.12789967e+02
766             	3.12790135e+02
767             	3.12790303e+02
768             	3.12790472e+02
769             	3.12790642e+02
770             	3.12790812e+02
771             	3.12790982e+02
772             	3.12791153e+02
773             	3.12791324e+02
774             	3.12791496e+02
775             	3.12791668e+02
776             	3.12791841e+02
777             	3.12792013e+02
778             	3.12792186e+02
779             	3.12792359e+02
780             	3.12792532e+02
781             	3.12792706e+02
782             	3.12792880e+02
783             	3.12793055e+02
784             	3.12793229e+02
785             	3.12793403e+02
786             	3.12793577e+02
787             	3.12793752e+02
788             	3.12793926e+02
789             	3.12794100e+02
790             	3.12794274e+02
791             	3.12794448e+02
792             	3.12794621e+02
793             	3.12794794e+02
794             	3.12794967e+02
795             	3.12795139e+02
796             	3.12795311e+02
797             	3.12795483e+02
798             	3.12795654e+02
799             	3.12795825e+02
800             	3.12795996e+02
801             	3.12796167e+02
802             	3.12796339e+02
803             	3.12796510e+02
804             	3.12796682e+02
805             	3.12796855e+02
806             	3.12797027e+02
807             	3.12797200e+02
808             	3.12797373e+02
809             	3.12797547e+02
810             	3.12797721e+02
811             	3.12797895e+02
812             	3.12798069e+02
813             	3.12798244e+02
814             	3.12798420e+02
815             	3.12798595e+02
816             	3.12798771e+02
817             	3.12798946e+02
818             	3.12799122e+02
819             	3.12799298e+02
820             	3.12799474e+02
821             	3.12799650e+02
822             	3.12799825e+02
823             	3.12800000e+02
824             	3.12800175e+02
825             	3.12800350e+02
826             	3.12800525e+02
827             	3.12800699e+02
828             	3.12800874e+02
829             	3.12801048e+02
830             	3.12801222e+02
831             	3.12801396e+02
832             	3.12801570e+02
833             	3.12801743e+02
834             	3.12801916e+02
835             	3.12802089e+02
836             	3.12802263e+02
837             	3.12802436e+02
838             	3.12802609e+02
839             	3.12802782e+02
840             	3.12802955e+02
841             	3.12803129e+02
842             	3.12803303e+02
843             	3.12803476e+02
844             	3.12803651e+02
845             	3.12803825e+02
846             	3.12803999e+02
847             	3.12804174e+02
848             	3.12804348e+02
849             	3.12804522e+02
850             	3.12804696e+02
851             	3.12804869e+02
852             	3.12805042e+02
853             	3.12805215e+02
854             	3.12805388e+02
855             	3.12805561e+02
856             	3.12805733e+02
857             	3.12805906e+02
858             	3.12806079e+02
859             	3.12806251e+02
860             	3.12806424e+02
861             	3.12806596e+02
862             	3.12806769e+02
863             	3.12806941e+02
864             	3.12807113e+02
865             	3.12807285e+02
866             	3.12807458e+02
867             	3.12807630e+02
868             	3.12807803e+02
869             	3.12807975e+02
870             	3.12808148e+02
871             	3.12808321e+02
872             	3.12808495e+02
873             	3.12808668e+02
874             	3.12808841e+02
875             	3.12809014e+02
876             	3.12809188e+02
877             	3.12809362e+02
878             	3.12809536e+02
879             	3.12809711e+02
880             	3.12809886e+02
881             	3.12810061e+02
882             	3.12810236e+02
883             	3.12810411e+02
884             	3.12810587e+02
885             	3.12810762e+02
886             	3.12810937e+02
887             	3.12811112e+02
888             	3.12811287e+02
889             	3.12811461e+02
890             	3.12811636e+02
891             	3.12811810e+02
892             	3.12811984e+02
893             	3.12812158e+02
894             	3.12812332e+02
895             	3.12812505e+02
896             	3.12812679e+02
897             	3.12812853e+02
898             	3.12813026e+02
899             	3.12813200e+02
900             	3.12813374e+02
901             	3.12813547e+02
902             	3.12813721e+02
903             	3.12813895e+02
904             	3.12814068e+02
905             	3.12814241e+02
906             	3.12814415e+02
907             	3.12814588e+02
908             	3.12814762e+02
909             	3.12814936e+02
910             	3.12815110e+02
911             	3.12815284e+02
912             	3.12815459e+02
913             	3.12815634e+02
914             	3.12815810e+02
915             	3.12815985e+02
916             	3.12816161e+02
917             	3.12816337e+02
918             	3.12816513e+02
919             	3.12816690e+02
920             	3.12816867e+02
921             	3.12817043e+02
922             	3.12817221e+02
923             	3.12817398e+02
924             	3.12817576e+02
925             	3.12817754e+02
926             	3.12817933e+02
927             	3.12818112e+02
928             	3.12818291e+02
929             	3.12818470e+02
930             	3.12818649e+02
931             	3.12818828e+02
932             	3.12819007e+02
933             	3.12819185e+02