# Region        : cellZone pcb
# Cells         : 702
# Volume        : 1.38409196e+00
# Time          	volAverage(T)
1               	3.00006826e+02
2               	3.00019896e+02
3               	3.00038100e+02
4               	3.00060963e+02
5               	3.00087737e+02
6               	3.00118039e+02
7               	3.00151515e+02
8               	3.00188092e+02
9               	3.00227536e+02
10              	3.00269733e+02
11              	3.00314417e+02
12              	3.00360661e+02
13              	3.00408563e+02
14              	3.00458761e+02
15              	3.00510741e+02
16              	3.00564551e+02
17              	3.00619114e+02
18              	3.00674909e+02
19              	3.00732258e+02
20              	3.00790334e+02
21              	3.00849924e+02
22              	3.00911487e+02
23              	3.00974146e+02
24              	3.01036374e+02
25              	3.01098203e+02
26              	3.01160957e+02
27              	3.01224950e+02
28              	3.01289325e+02
29              	3.01353755e+02
30              	3.01418806e+02
31              	3.01483926e+02
32              	3.01548953e+02
33              	3.01614382e+02
34              	3.01679162e+02
35              	3.01743810e+02
36              	3.01809393e+02
37              	3.01875122e+02
38              	3.01941143e+02
39              	3.02007394e+02
40              	3.02073192e+02
41              	3.02138654e+02
42              	3.02204074e+02
43              	3.02269342e+02
44              	3.02334454e+02
45              	3.02399393e+02
46              	3.02463348e+02
47              	3.02527423e+02
48              	3.02591676e+02
49              	3.02655285e+02
50              	3.02719060e+02
51              	3.02782090e+02
52              	3.02845552e+02
53              	3.02908803e+02
54              	3.02971162e+02
55              	3.03033108e+02
56              	3.03095296e+02
57              	3.03157421e+02
58              	3.03219631e+02
59              	3.03280660e+02
60              	3.03342553e+02
61              	3.03403171e+02
62              	3.03463044e+02
63              	3.03522640e+02
64              	3.03581265e+02
65              	3.03641242e+02
66              	3.03700314e+02
67              	3.03758429e+02
68              	3.03814846e+02
69              	3.03871077e+02
70              	3.03928687e+02
71              	3.03985636e+02
72              	3.04041350e+02
73              	3.04094444e+02
74              	3.04148586e+02
75              	3.04203049e+02
76              	3.04256886e+02
77              	3.04309374e+02
78              	3.04361851e+02
79              	3.04414516e+02
80              	3.04465633e+02
81              	3.04516458e+02
82              	3.04567109e+02
83              	3.04617826e+02
84              	3.04669075e+02
85              	3.04719402e+02
86              	3.04768646e+02
87              	3.04816574e+02
88              	3.04863723e+02
89              	3.04909746e+02
90              	3.04955572e+02
91              	3.05001892e+02
92              	3.05048260e+02
93              	3.05091558e+02
94              	3.05134828e+02
95              	3.05176598e+02
96              	3.05219109e+02
97              	3.05261914e+02
98              	3.05305278e+02
99              	3.05348843e+02
100             	3.05392212e+02
101             	3.05434995e+02
102             	3.05477143e+02
103             	3.05518076e+02
104             	3.05558432e+02
105             	3.05598350e+02
106             	3.05637516e+02
107             	3.05676051e+02
108             	3.05714208e+02
109             	3.05753284e+02
110             	3.05793243e+02
111             	3.05831633e+02
112             	3.05868428e+02
113             	3.05904510e+02
114             	3.05940430e+02
115             	3.05976027e+02
116             	3.06011888e+02
117             	3.06047480e+02
118             	3.06082861e+02
119             	3.06118731e+02
120             	3.06154947e+02
121             	3.06189497e+02
122             	3.06223470e+02
123             	3.06257510e+02
124             	3.06290762e+02
125             	3.06321964e+02
126             	3.06353843e+02
127             	3.06387089e+02
128             	3.06417154e+02
129             	3.06447300e+02
130             	3.06477143e+02
131             	3.06507094e+02
132             	3.06537880e+02
133             	3.06568882e+02
134             	3.06600223e+02
135             	3.06631537e+02
136             	3.06661755e+02
137             	3.06691128e+02
138             	3.06720077e+02
139             	3.06749060e+02
140             	3.06778101e+02
141             	3.06806792e+02
142             	3.06835402e+02
143             	3.06864076e+02
144             	3.06891672e+02
145             	3.06919145e+02
146             	3.06946211e+02
147             	3.06972166e+02
148             	3.06997610e+02
149             	3.07023216e+02
150             	3.07048770e+02
151             	3.07074374e+02
152             	3.07100202e+02
153             	3.07125849e+02
154             	3.07151280e+02
155             	3.07177269e+02
156             	3.07203379e+02
157             	3.07229294e+02
158             	3.07254841e+02
159             	3.07279829e+02
160             	3.07304316e+02
161             	3.07327651e+02
162             	3.07350259e+02
163             	3.07373432e+02
164             	3.07396107e+02
165             	3.07417769e+02
166             	3.07439098e+02
167             	3.07460448e+02
168             	3.07482101e+02
169             	3.07504343e+02
170             	3.07526671e+02
171             	3.07549222e+02
172             	3.07572198e+02
173             	3.07594522e+02
174             	3.07615548e+02
175             	3.07636268e+02
176             	3.07656853e+02
177             	3.07677512e+02
178             	3.07698053e+02
179             	3.07718338e+02
180             	3.07738782e+02
181             	3.07758841e+02
182             	3.07778499e+02
183             	3.07797961e+02
184             	3.07817553e+02
185             	3.07836350e+02
186             	3.07855002e+02
187             	3.07872773e+02
188             	3.07890740e+02
189             	3.07908858e+02
190             	3.07927186e+02
191             	3.07945504e+02
192             	3.07963750e+02
193             	3.07981961e+02
194             	3.08000055e+02
195             	3.08018030e+02
196             	3.08035914e+02
197             	3.08053681e+02
198             	3.08071017e+02
199             	3.08087680e+02
200             	3.08104112e+02
201             	3.08119869e+02
202             	3.08134496e+02
203             	3.08149045e+02
204             	3.08163533e+02
205             	3.08178585e+02
206             	3.08193214e+02
207             	3.08207879e+02
208             	3.08222917e+02
209             	3.08238061e+02
210             	3.08253218e+02
211             	3.08267866e+02
212             	3.08282315e+02
213             	3.08296910e+02
214             	3.08311898e+02
215             	3.08326666e+02
216             	3.08341385e+02
217             	3.08356338e+02
218             	3.08371820e+02
219             	3.08385879e+02
220             	3.08398983e+02
221             	3.08411378e+02
222             	3.08424095e+02
223             	3.08436840e+02
224             	3.08449625e+02
225             	3.08462104e+02
226             	3.08474719e+02
227             	3.08488539e+02
228             	3.08502309e+02
229             	3.08515778e+02
230             	3.08528851e+02
231             	3.08541629e+02
232             	3.08554188e+02
233             	3.08566529e+02
234             	3.08579004e+02
235             	3.08590372e+02
236             	3.08600123e+02
237             	3.08611288e+02
238             	3.08621651e+02
239             	3.08631845e+02
240             	3.08642152e+02
241             	3.08652772e+02
242             	3.08664286e+02
243             	3.08676298e+02
244             	3.08688207e+02
245             	3.08699412e+02
246             	3.08710406e+02
247             	3.08721270e+02
248             	3.08732020e+02
249             	3.08742045e+02
250             	3.08751630e+02
251             	3.08761093e+02
252             	3.08770322e+02
253             	3.08779483e+02
254             	3.08788355e+02
255             	3.08797167e+02
256             	3.08805938e+02
257             	3.08814801e+02
258             	3.08823344e+02
259             	3.08831742e+02
260             	3.08840153e+02
261             	3.08848800e+02
262             	3.08857568e+02
263             	3.08866548e+02
264             	3.08875618e+02
265             	3.08884724e+02
266             	3.08894022e+02
267             	3.08903029e+02
268             	3.08911987e+02
269             	3.08921173e+02
270             	3.08931124e+02
271             	3.08940209e+02
272             	3.08948405e+02
273             	3.08956437e+02
274             	3.08964286e+02
275             	3.08971864e+02
276             	3.08979612e+02
277             	3.08986923e+02
278             	3.08993948e+02
279             	3.09000923e+02
280             	3.09007883e+02
281             	3.09014792e+02
282             	3.09021817e+02
283             	3.09028993e+02
284             	3.09036349e+02
285             	3.09043760e+02
286             	3.09051443e+02
287             	3.09059390e+02
288             	3.09067061e+02
289             	3.09074823e+02
290             	3.09082667e+02
291             	3.09090134e+02
292             	3.09097575e+02
293             	3.09104699e+02
294             	3.09111741e+02
295             	3.09118723e+02
296             	3.09125369e+02
297             	3.09131639e+02
298             	3.09137647e+02
299             	3.09143397e+02
300             	3.09149167e+02
301             	3.09154987e+02
302             	3.09160712e+02
303             	3.09166513e+02
304             	3.09172446e+02
305             	3.09178491e+02
306             	3.09184646e+02
307             	3.09190878e+02
308             	3.09197142e+02
309             	3.09203294e+02
310             	3.09209564e+02
311             	3.09215829e+02
312             	3.09222258e+02
313             	3.09228649e+02
314             	3.09234528e+02
315             	3.09240129e+02
316             	3.09245875e+02
317             	3.09252077e+02
318             	3.09257240e+02
319             	3.09261924e+02
320             	3.09266639e+02
321             	3.09271633e+02
322             	3.09276773e+02
323             	3.09282054e+02
324             	3.09287576e+02
325             	3.09293517e+02
326             	3.09298714e+02
327             	3.09303633e+02
328             	3.09308544e+02
329             	3.09313628e+02
330             	3.09318754e+02
331             	3.09323630e+02
332             	3.09328511e+02
333             	3.09333496e+02
334             	3.09337442e+02
335             	3.09340767e+02
336             	3.09343809e+02
337             	3.09346880e+02
338             	3.09350269e+02
339             	3.09353994e+02
340             	3.09358768e+02
341             	3.09363844e+02
342             	3.09369320e+02
343             	3.09374638e+02
344             	3.09379957e+02
345             	3.09384495e+02
346             	3.09388296e+02
347             	3.09392228e+02
348             	3.09396229e+02
349             	3.09399995e+02
350             	3.09403493e+02
351             	3.09406810e+02
352             	3.09410336e+02
353             	3.09413820e+02
354             	3.09416960e+02
355             	3.09419714e+02
356             	3.09422490e+02
357             	3.09425511e+02
358             	3.09428770e+02
359             	3.09432321e+02
360             	3.09436157e+02
361             	3.09440049e+02
362             	3.09444031e+02
363             	3.09448354e+02
364             	3.09452835e+02
365             	3.09457041e+02
366             	3.09460925e+02
367             	3.09464456e+02
368             	3.09468420e+02
369             	3.09471281e+02
370             	3.09473549e+02
371             	3.09475271e+02
372             	3.09477105e+02
373             	3.09479140e+02
374             	3.09481544e+02
375             	3.09484644e+02
376             	3.09488348e+02
377             	3.09492147e+02
378             	3.09495529e+02
379             	3.09498970e+02
380             	3.09502353e+02
381             	3.09505663e+02
382             	3.09508636e+02
383             	3.09511310e+02
384             	3.09513855e+02
385             	3.09516592e+02
386             	3.09518250e+02
387             	3.09519561e+02
388             	3.09521035e+02
389             	3.09522834e+02
390             	3.09525063e+02
391             	3.09527646e+02
392             	3.09530636e+02
393             	3.09533651e+02
394             	3.09536309e+02
395             	3.09538831e+02
396             	3.09542027e+02
397             	3.09545057e+02
398             	3.09547907e+02
399             	3.09550218e+02
400             	3.09552332e+02
401             	3.09555509e+02
402             	3.09557381e+02
403             	3.09558244e+02
404             	3.09558903e+02
405             	3.09560428e+02
406             	3.09562082e+02
407             	3.09564001e+02
408             	3.09566375e+02
409             	3.09569217e+02
410             	3.09572025e+02
411             	3.09574906e+02
412             	3.09578114e+02
413             	3.09581044e+02
414             	3.09583689e+02
415             	3.09586233e+02
416             	3.09587562e+02
417             	3.09588030e+02
418             	3.09588361e+02
419             	3.09589153e+02
420             	3.09589788e+02
421             	3.09590447e+02
422             	3.09591525e+02
423             	3.09592734e+02
424             	3.09594077e+02
425             	3.09595732e+02
426             	3.09597631e+02
427             	3.09599851e+02
428             	3.09602188e+02
429             	3.09604023e+02
430             	3.09605962e+02
431             	3.09608108e+02
432             	3.09610266e+02
433             	3.09612318e+02
434             	3.09614801e+02
435             	3.09617004e+02
436             	3.09618684e+02
437             	3.09619863e+02
438             	3.09620747e+02
439             	3.09621556e+02
440             	3.09622261e+02
441             	3.09622936e+02
442             	3.09623684e+02
443             	3.09624903e+02
444             	3.09626451e+02
445             	3.09627658e+02
446             	3.09628879e+02
447             	3.09630209e+02
448             	3.09631644e+02
449             	3.09633194e+02
450             	3.09634804e+02
451             	3.09636478e+02
452             	3.09638263e+02
453             	3.09640203e+02
454             	3.09642589e+02
455             	3.09645220e+02
456             	3.09647911e+02
457             	3.09650297e+02
458             	3.09651795e+02
459             	3.09652656e+02
460             	3.09653371e+02
461             	3.09654006e+02
462             	3.09654491e+02
463             	3.09654910e+02
464             	3.09655352e+02
465             	3.09655663e+02
466             	3.09656161e+02
467             	3.09657185e+02
468             	3.09658595e+02
469             	3.09660067e+02
470             	3.09660814e+02
471             	3.09661501e+02
472             	3.09662476e+02
473             	3.09663731e+02
474             	3.09665162e+02
475             	3.09666543e+02
476             	3.09668022e+02
477             	3.09669480e+02
478             	3.09671024e+02
479             	3.09672377e+02
480             	3.09673542e+02
481             	3.09675668e+02
482             	3.09677519e+02
483             	3.09679196e+02
484             	3.09680775e+02
485             	3.09681348e+02
486             	3.09681446e+02
487             	3.09681544e+02
488             	3.09681753e+02
489             	3.09681977e+02
490             	3.09682279e+02
491             	3.09682577e+02
492             	3.09682938e+02
493             	3.09683459e+02
494             	3.09684015e+02
495             	3.09685216e+02
496             	3.09686594e+02
497             	3.09688126e+02
498             	3.09689499e+02
499             	3.09690487e+02
500             	3.09691428e+02
501             	3.09692804e+02
502             	3.09693983e+02
503             	3.09695104e+02
504             	3.09696261e+02
505             	3.09697430e+02
506             	3.09698545e+02
507             	3.09699439e+02
508             	3.09700474e+02
509             	3.09701688e+02
510             	3.09703185e+02
511             	3.09704536e+02
512             	3.09705506e+02
513             	3.09706079e+02
514             	3.09706428e+02
515             	3.09706732e+02
516             	3.09707122e+02
517             	3.09707652e+02
518             	3.09708193e+02
519             	3.09708783e+02
520             	3.09709410e+02
521             	3.09710117e+02
522             	3.09710860e+02
523             	3.09711640e+02
524             	3.09712462e+02
525             	3.09713338e+02
526             	3.09714387e+02
527             	3.09715111e+02
528             	3.09715828e+02
529             	3.09716481e+02
530             	3.09717076e+02
531             	3.09717601e+02
532             	3.09718281e+02
533             	3.09719122e+02
534             	3.09720105e+02
535             	3.09721304e+02
536             	3.09722959e+02
537             	3.09724561e+02
538             	3.09726202e+02
539             	3.09727794e+02
540             	3.09729039e+02
541             	3.09729917e+02
542             	3.09730617e+02
543             	3.09731300e+02
544             	3.09732014e+02
545             	3.09732650e+02
546             	3.09733379e+02
547             	3.09734188e+02
548             	3.09734931e+02
549             	3.09735637e+02
550             	3.09736237e+02
551             	3.09736775e+02
552             	3.09737220e+02
553             	3.09737621e+02
554             	3.09738014e+02
555             	3.09738448e+02
556             	3.09738938e+02
557             	3.09739406e+02
558             	3.09739901e+02
559             	3.09740500e+02
560             	3.09741267e+02
561             	3.09742413e+02
562             	3.09743234e+02
563             	3.09743896e+02
564             	3.09744447e+02
565             	3.09744999e+02
566             	3.09745625e+02
567             	3.09746265e+02
568             	3.09746981e+02
569             	3.09747777e+02
570             	3.09748641e+02
571             	3.09749575e+02
572             	3.09750465e+02
573             	3.09751290e+02
574             	3.09752051e+02
575             	3.09752777e+02
576             	3.09753463e+02
577             	3.09754119e+02
578             	3.09754808e+02
579             	3.09755522e+02
580             	3.09756095e+02
581             	3.09756675e+02
582             	3.09757293e+02
583             	3.09757911e+02
584             	3.09758541e+02
585             	3.09759183e+02
586             	3.09759844e+02
587             	3.09760521e+02
588             	3.09761218e+02
589             	3.09761923e+02
590             	3.09762652e+02
591             	3.09763356e+02
592             	3.09764059e+02
593             	3.09764701e+02
594             	3.09765301e+02
595             	3.09765882e+02
596             	3.09766460e+02
597             	3.09767064e+02
598             	3.09767705e+02
599             	3.09768204e+02
600             	3.09768631e+02
601             	3.09769138e+02
602             	3.09770590e+02
603             	3.09771488e+02
604             	3.09771858e+02
605             	3.09772248e+02
606             	3.09772699e+02
607             	3.09773329e+02
608             	3.09774062e+02
609             	3.09774985e+02
610             	3.09776044e+02
611             	3.09777385e+02
612             	3.09778720e+02
613             	3.09779823e+02
614             	3.09780253e+02
615             	3.09780507e+02
616             	3.09780782e+02
617             	3.09781035e+02
618             	3.09781161e+02
619             	3.09781295e+02
620             	3.09781499e+02
621             	3.09781748e+02
622             	3.09782061e+02
623             	3.09782428e+02
624             	3.09782798e+02
625             	3.09783215e+02
626             	3.09783812e+02
627             	3.09784262e+02
628             	3.09784736e+02
629             	3.09785276e+02
630             	3.09785932e+02
631             	3.09786686e+02
632             	3.09787483e+02
633             	3.09788310e+02
634             	3.09789123e+02
635             	3.09789982e+02
636             	3.09790659e+02
637             	3.09791241e+02
638             	3.09791743e+02
639             	3.09792154e+02
640             	3.09792559e+02
641             	3.09792815e+02
642             	3.09793150e+02
643             	3.09793629e+02
644             	3.09794041e+02
645             	3.09794193e+02
646             	3.09794221e+02
647             	3.09794305e+02
648             	3.09794439e+02
649             	3.09794598e+02
650             	3.09794702e+02
651             	3.09794852e+02
652             	3.09795004e+02
653             	3.09795301e+02
654             	3.09795613e+02
655             	3.09795924e+02
656             	3.09796351e+02
657             	3.09796850e+02
658             	3.09797454e+02
659             	3.09798078e+02
660             	3.09798750e+02
661             	3.09799518e+02
662             	3.09800327e+02
663             	3.09800909e+02
664             	3.09801329e+02
665             	3.09801632e+02
666             	3.09801794e+02
667             	3.09801946e+02
668             	3.09802165e+02
669             	3.09802337e+02
670             	3.09802634e+02
671             	3.09803085e+02
672             	3.09803624e+02
673             	3.09804105e+02
674             	3.09804507e+02
675             	3.09804775e+02
676             	3.09804997e+02
677             	3.09805185e+02
678             	3.09805397e+02
679             	3.09805617e+02
680             	3.09805875e+02
681             	3.09806137e+02
682             	3.09806426e+02
683             	3.09806710e+02
684             	3.09807004e+02
685             	3.09807318e+02
686             	3.09807582e+02
687             	3.09807827e+02
688             	3.09808243e+02
689             	3.09808517e+02
690             	3.09808726e+02
691             	3.09809004e+02
692             	3.09809345e+02
693             	3.09809752e+02
694             	3.09810194e+02
695             	3.09810682e+02
696             	3.09811210e+02
697             	3.09811904e+02
698             	3.09812454e+02
699             	3.09812930e+02
700             	3.09813210e+02
701             	3.09813362e+02
702             	3.09813620e+02
703             	3.09813962e+02
704             	3.09814285e+02
705             	3.09814443e+02
706             	3.09814626e+02
707             	3.09814824e+02
708             	3.09815004e+02
709             	3.09815113e+02
710             	3.09815161e+02
711             	3.09815210e+02
712             	3.09815273e+02
713             	3.09815392e+02
714             	3.09815471e+02
715             	3.09815520e+02
716             	3.09815577e+02
717             	3.09815676e+02
718             	3.09815811e+02
719             	3.09815951e+02
720             	3.09816115e+02
721             	3.09816324e+02
722             	3.09816675e+02
723             	3.09816833e+02
724             	3.09816905e+02
725             	3.09816999e+02
726             	3.09817064e+02
727             	3.09817238e+02
728             	3.09817493e+02
729             	3.09817777e+02
730             	3.09818089e+02
731             	3.09818453e+02
732             	3.09818953e+02
733             	3.09819564e+02
734             	3.09820111e+02
735             	3.09820513e+02
736             	3.09820743e+02
737             	3.09820840e+02
738             	3.09820848e+02
739             	3.09820823e+02
740             	3.09820735e+02
741             	3.09820638e+02
742             	3.09820518e+02
743             	3.09820263e+02
744             	3.09819992e+02
745             	3.09819716e+02
746             	3.09819465e+02
747             	3.09819338e+02
748             	3.09819235e+02
749             	3.09819159e+02
750             	3.09819216e+02
751             	3.09819426e+02
752             	3.09819772e+02
753             	3.09820223e+02
754             	3.09820595e+02
755             	3.09821005e+02
756             	3.09821409e+02
757             	3.09821777e+02
758             	3.09822004e+02
759             	3.09822262e+02
760             	3.09822516e+02
761             	3.09822703e+02
762             	3.09822869e+02
763             	3.09822890e+02
764             	3.09822877e+02
765             	3.09822872e+02
766             	3.09822787e+02
767             	3.09822673e+02
768             	3.09822522e+02
769             	3.09822366e+02
770             	3.09822267e+02
771             	3.09822267e+02
772             	3.09822232e+02
773             	3.09822193e+02
774             	3.09822202e+02
775             	3.09822255e+02
776             	3.09822344e+02
777             	3.09822524e+02
778             	3.09822745e+02
779             	3.09822995e+02
780             	3.09823251e+02
781             	3.09823550e+02
782             	3.09823818e+02
783             	3.09823978e+02
784             	3.09824081e+02
785             	3.09824136e+02
786             	3.09824173e+02
787             	3.09824249e+02
788             	3.09824412e+02
789             	3.09824569e+02
790             	3.09824780e+02
791             	3.09824950e+02
792             	3.09825094e+02
793             	3.09825092e+02
794             	3.09825143e+02
795             	3.09825224e+02
796             	3.09825215e+02
797             	3.09825109e+02
798             	3.09824959e+02
799             	3.09824731e+02
800             	3.09824582e+02
801             	3.09824562e+02
802             	3.09824464e+02
803             	3.09824374e+02
804             	3.09824364e+02
805             	3.09824457e+02
806             	3.09824625e+02
807             	3.09824939e+02
808             	3.09825347e+02
809             	3.09825768e+02
810             	3.09826236e+02
811             	3.09826607e+02
812             	3.09827077e+02
813             	3.09827648e+02
814             	3.09828115e+02
815             	3.09828369e+02
816             	3.09828334e+02
817             	3.09828212e+02
818             	3.09828070e+02
819             	3.09827907e+02
820             	3.09827684e+02
821             	3.09827511e+02
822             	3.09827323e+02
823             	3.09827259e+02
824             	3.09827289e+02
825             	3.09827536e+02
826             	3.09827679e+02
827             	3.09827790e+02
828             	3.09827844e+02
829             	3.09827906e+02
830             	3.09827974e+02
831             	3.09828057e+02
832             	3.09828189e+02
833             	3.09828361e+02
834             	3.09828511e+02
835             	3.09828677e+02
836             	3.09829158e+02
837             	3.09829896e+02
838             	3.09830533e+02
839             	3.09830741e+02
840             	3.09830547e+02
841             	3.09830238e+02
842             	3.09829914e+02
843             	3.09829648e+02
844             	3.09829407e+02
845             	3.09829253e+02
846             	3.09829147e+02
847             	3.09829151e+02
848             	3.09829157e+02
849             	3.09829230e+02
850             	3.09829266e+02
851             	3.09829290e+02
852             	3.09829277e+02
853             	3.09829273e+02
854             	3.09829203e+02
855             	3.09829180e+02
856             	3.09829134e+02
857             	3.09829111e+02
858             	3.09829167e+02
859             	3.09829316e+02
860             	3.09829560e+02
861             	3.09829872e+02
862             	3.09830268e+02
863             	3.09830598e+02
864             	3.09830807e+02
865             	3.09831011e+02
866             	3.09831096e+02
867             	3.09831185e+02
868             	3.09831306e+02
869             	3.09831383e+02
870             	3.09831421e+02
871             	3.09831401e+02
872             	3.09831335e+02
873             	3.09831218e+02
874             	3.09831171e+02
875             	3.09831086e+02
876             	3.09831018e+02
877             	3.09830991e+02
878             	3.09831004e+02
879             	3.09831071e+02
880             	3.09831195e+02
881             	3.09831417e+02
882             	3.09831661e+02
883             	3.09831915e+02
884             	3.09832180e+02
885             	3.09832405e+02
886             	3.09832605e+02
887             	3.09832788e+02
888             	3.09832976e+02
889             	3.09833168e+02
890             	3.09833377e+02
891             	3.09833589e+02
892             	3.09833771e+02
893             	3.09833897e+02
894             	3.09833970e+02
895             	3.09834012e+02
896             	3.09834025e+02
897             	3.09834011e+02
898             	3.09834067e+02
899             	3.09834165e+02
900             	3.09834311e+02
901             	3.09834366e+02
902             	3.09834454e+02
903             	3.09834564e+02
904             	3.09834667e+02
905             	3.09834751e+02
906             	3.09834819e+02
907             	3.09834880e+02
908             	3.09834922e+02
909             	3.09834968e+02
910             	3.09834966e+02
911             	3.09834949e+02
912             	3.09834966e+02
913             	3.09835029e+02
914             	3.09835085e+02
915             	3.09835222e+02
916             	3.09835391e+02
917             	3.09835545e+02
918             	3.09835775e+02
919             	3.09835921e+02
920             	3.09836009e+02
921             	3.09836100e+02
922             	3.09836226e+02
923             	3.09836418e+02
924             	3.09836654e+02
925             	3.09836907e+02
926             	3.09837019e+02
927             	3.09837099e+02
928             	3.09837340e+02
929             	3.09837677e+02
930             	3.09837842e+02
931             	3.09837916e+02
932             	3.09837949e+02
933             	3.09837866e+02