# Region        : cellZone component_1
# Cells         : 27
# Volume        : 2.80841426e-02
# Time          	volAverage(T)
1               	3.10429742e+02
2               	3.20261533e+02
3               	3.25215152e+02
4               	3.27677182e+02
5               	3.29943495e+02
6               	3.32460366e+02
7               	3.35097577e+02
8               	3.37655472e+02
9               	3.40161013e+02
10              	3.42525718e+02
11              	3.44430839e+02
12              	3.45831329e+02
13              	3.46934015e+02
14              	3.47532404e+02
15              	3.48427047e+02
16              	3.49346958e+02
17              	3.50153738e+02
18              	3.50588440e+02
19              	3.50783730e+02
20              	3.51232136e+02
21              	3.52185066e+02
22              	3.53282072e+02
23              	3.54489161e+02
24              	3.55875522e+02
25              	3.57323933e+02
26              	3.58825869e+02
27              	3.59681520e+02
28              	3.61031377e+02
29              	3.61283486e+02
30              	3.61253412e+02
31              	3.60503925e+02
32              	3.59440644e+02
33              	3.58259677e+02
34              	3.56979963e+02
35              	3.55905075e+02
36              	3.54224158e+02
37              	3.53083502e+02
38              	3.52153150e+02
39              	3.51482494e+02
40              	3.51227129e+02
41              	3.51077634e+02
42              	3.50717156e+02
43              	3.50110810e+02
44              	3.49260056e+02
45              	3.48242820e+02
46              	3.46889234e+02
47              	3.45661424e+02
48              	3.44436921e+02
49              	3.43683472e+02
50              	3.43873732e+02
51              	3.44556538e+02
52              	3.44863973e+02
53              	3.45085235e+02
54              	3.45435720e+02
55              	3.45872199e+02
56              	3.46640112e+02
57              	3.47743010e+02
58              	3.48918700e+02
59              	3.49351985e+02
60              	3.49633830e+02
61              	3.49249118e+02
62              	3.48602016e+02
63              	3.47947091e+02
64              	3.47717656e+02
65              	3.47875119e+02
66              	3.48253859e+02
67              	3.48637246e+02
68              	3.49171423e+02
69              	3.49728877e+02
70              	3.50208844e+02
71              	3.50735786e+02
72              	3.51454916e+02
73              	3.52483448e+02
74              	3.53834802e+02
75              	3.55478900e+02
76              	3.57332598e+02
77              	3.59144199e+02
78              	3.60439130e+02
79              	3.61477335e+02
80              	3.62648910e+02
81              	3.63006595e+02
82              	3.62567971e+02
83              	3.61951066e+02
84              	3.61174364e+02
85              	3.60355619e+02
86              	3.59001803e+02
87              	3.58084883e+02
88              	3.57009036e+02
89              	3.55690306e+02
90              	3.54571963e+02
91              	3.53937511e+02
92              	3.53838794e+02
93              	3.53612538e+02
94              	3.53268590e+02
95              	3.52919606e+02
96              	3.52159441e+02
97              	3.51211185e+02
98              	3.50093170e+02
99              	3.49275228e+02
100             	3.48966809e+02
101             	3.49031447e+02
102             	3.48826750e+02
103             	3.48776056e+02
104             	3.48917916e+02
105             	3.49519015e+02
106             	3.50028413e+02
107             	3.50853387e+02
108             	3.51500371e+02
109             	3.51605448e+02
110             	3.51908712e+02
111             	3.51975979e+02
112             	3.52023141e+02
113             	3.51948059e+02
114             	3.51978733e+02
115             	3.52119580e+02
116             	3.52606534e+02
117             	3.53246523e+02
118             	3.53814226e+02
119             	3.54064320e+02
120             	3.54110777e+02
121             	3.53944298e+02
122             	3.54037951e+02
123             	3.54729934e+02
124             	3.55574562e+02
125             	3.56583837e+02
126             	3.57761688e+02
127             	3.58952391e+02
128             	3.59669435e+02
129             	3.59939564e+02
130             	3.60235483e+02
131             	3.60456572e+02
132             	3.59979404e+02
133             	3.59405921e+02
134             	3.58743770e+02
135             	3.58271965e+02
136             	3.57492721e+02
137             	3.57105211e+02
138             	3.56593490e+02
139             	3.56032133e+02
140             	3.55723215e+02
141             	3.55688608e+02
142             	3.55859567e+02
143             	3.56103719e+02
144             	3.56311175e+02
145             	3.56365770e+02
146             	3.56293484e+02
147             	3.56445683e+02
148             	3.56947288e+02
149             	3.57527460e+02
150             	3.58154017e+02
151             	3.58615844e+02
152             	3.59005361e+02
153             	3.59278048e+02
154             	3.59342166e+02
155             	3.59283817e+02
156             	3.59266503e+02
157             	3.59413625e+02
158             	3.59530312e+02
159             	3.59690476e+02
160             	3.59998246e+02
161             	3.60507308e+02
162             	3.61065070e+02
163             	3.61470261e+02
164             	3.61951101e+02
165             	3.62222166e+02
166             	3.62565232e+02
167             	3.62910438e+02
168             	3.63362188e+02
169             	3.63643471e+02
170             	3.64112579e+02
171             	3.64742450e+02
172             	3.64713226e+02
173             	3.64828841e+02
174             	3.64720431e+02
175             	3.64709356e+02
176             	3.64520038e+02
177             	3.64213183e+02
178             	3.63599928e+02
179             	3.63131428e+02
180             	3.62721177e+02
181             	3.62320995e+02
182             	3.61784513e+02
183             	3.61504034e+02
184             	3.61461503e+02
185             	3.61610066e+02
186             	3.61875644e+02
187             	3.62232164e+02
188             	3.62320344e+02
189             	3.62501645e+02
190             	3.62468737e+02
191             	3.62652691e+02
192             	3.62920291e+02
193             	3.63303307e+02
194             	3.63423019e+02
195             	3.63542589e+02
196             	3.63442639e+02
197             	3.63606813e+02
198             	3.63766166e+02
199             	3.63604771e+02
200             	3.63516088e+02
201             	3.63508469e+02
202             	3.63777621e+02
203             	3.64270950e+02
204             	3.64823433e+02
205             	3.65504723e+02
206             	3.66041792e+02
207             	3.66717843e+02
208             	3.67001608e+02
209             	3.67023091e+02
210             	3.67283554e+02
211             	3.67356081e+02
212             	3.67422580e+02
213             	3.67195231e+02
214             	3.66954563e+02
215             	3.66781923e+02
216             	3.66661923e+02
217             	3.66406788e+02
218             	3.66202418e+02
219             	3.66097386e+02
220             	3.66106833e+02
221             	3.66217796e+02
222             	3.66207353e+02
223             	3.66349230e+02
224             	3.66104044e+02
225             	3.66069478e+02
226             	3.65948371e+02
227             	3.66030501e+02
228             	3.66009884e+02
229             	3.66144989e+02
230             	3.66431428e+02
231             	3.66650492e+02
232             	3.66909046e+02
233             	3.66901941e+02
234             	3.66972195e+02
235             	3.66904444e+02
236             	3.67047238e+02
237             	3.67113985e+02
238             	3.67395147e+02
239             	3.67407402e+02
240             	3.67659700e+02
241             	3.67708652e+02
242             	3.67983366e+02
243             	3.68088298e+02
244             	3.68428783e+02
245             	3.68584544e+02
246             	3.68681500e+02
247             	3.68790821e+02
248             	3.68870601e+02
249             	3.69185268e+02
250             	3.69224032e+02
251             	3.69212549e+02
252             	3.69176136e+02
253             	3.69326062e+02
254             	3.69245757e+02
255             	3.69326059e+02
256             	3.69307446e+02
257             	3.69435060e+02
258             	3.69343243e+02
259             	3.69454609e+02
260             	3.69372296e+02
261             	3.69545484e+02
262             	3.69470019e+02
263             	3.69436621e+02
264             	3.69440013e+02
265             	3.69418694e+02
266             	3.69351176e+02
267             	3.69494594e+02
268             	3.69413067e+02
269             	3.69475698e+02
270             	3.69333572e+02
271             	3.69359087e+02
272             	3.69235891e+02
273             	3.69292292e+02
274             	3.69257500e+02
275             	3.69428536e+02
276             	3.69304226e+02
277             	3.69417086e+02
278             	3.69248729e+02
279             	3.69302198e+02
280             	3.69123296e+02
281             	3.69187693e+02
282             	3.69070832e+02
283             	3.69201464e+02
284             	3.69125856e+02
285             	3.69289430e+02
286             	3.69122395e+02
287             	3.69151117e+02
288             	3.69027878e+02
289             	3.69115504e+02
290             	3.68934674e+02
291             	3.68950594e+02
292             	3.69051844e+02
293             	3.69000452e+02
294             	3.68963992e+02
295             	3.68971457e+02
296             	3.69032563e+02
297             	3.69145138e+02
298             	3.69247898e+02
299             	3.69286036e+02
300             	3.69276677e+02
301             	3.69293111e+02
302             	3.69324403e+02
303             	3.69352982e+02
304             	3.69362107e+02
305             	3.69365289e+02
306             	3.69375677e+02
307             	3.69595749e+02
308             	3.69798879e+02
309             	3.69762191e+02
310             	3.69687213e+02
311             	3.69636059e+02
312             	3.69623235e+02
313             	3.69634653e+02
314             	3.69640863e+02
315             	3.69644504e+02
316             	3.69651551e+02
317             	3.69662820e+02
318             	3.69680323e+02
319             	3.69697104e+02
320             	3.69710294e+02
321             	3.69722198e+02
322             	3.69733878e+02
323             	3.69744167e+02
324             	3.69751091e+02
325             	3.69755442e+02
326             	3.69761855e+02
327             	3.69766112e+02
328             	3.69769183e+02
329             	3.69770709e+02
330             	3.69773483e+02
331             	3.69775871e+02
332             	3.69779009e+02
333             	3.69780593e+02
334             	3.69778323e+02
335             	3.69776522e+02
336             	3.69770731e+02
337             	3.69766764e+02
338             	3.69761846e+02
339             	3.69757561e+02
340             	3.69753444e+02
341             	3.69748294e+02
342             	3.69741602e+02
343             	3.69733800e+02
344             	3.69725343e+02
345             	3.69742164e+02
346             	3.69760200e+02
347             	3.69784791e+02
348             	3.69788813e+02
349             	3.69783611e+02
350             	3.69778955e+02
351             	3.69739077e+02
352             	3.69699844e+02
353             	3.69669534e+02
354             	3.69646055e+02
355             	3.69626281e+02
356             	3.69608593e+02
357             	3.69571705e+02
358             	3.69539490e+02
359             	3.69516427e+02
360             	3.69501689e+02
361             	3.69492686e+02
362             	3.69487860e+02
363             	3.69486137e+02
364             	3.69487418e+02
365             	3.69490866e+02
366             	3.69495782e+02
367             	3.69502513e+02
368             	3.69510249e+02
369             	3.69518933e+02
370             	3.69529593e+02
371             	3.69541212e+02
372             	3.69551388e+02
373             	3.69559127e+02
374             	3.69567726e+02
375             	3.69577650e+02
376             	3.69829126e+02
377             	3.69827841e+02
378             	3.70036859e+02
379             	3.69968072e+02
380             	3.70105539e+02
381             	3.70032702e+02
382             	3.70213504e+02
383             	3.70114894e+02
384             	3.70238269e+02
385             	3.70113946e+02
386             	3.70241897e+02
387             	3.70101200e+02
388             	3.70206277e+02
389             	3.70043262e+02
390             	3.70098544e+02
391             	3.69936591e+02
392             	3.70002716e+02
393             	3.69843648e+02
394             	3.69919366e+02
395             	3.69757264e+02
396             	3.69812065e+02
397             	3.69673389e+02
398             	3.69767390e+02
399             	3.69645584e+02
400             	3.69763524e+02
401             	3.69663078e+02
402             	3.69806458e+02
403             	3.69718613e+02
404             	3.69876821e+02
405             	3.69795025e+02
406             	3.69739157e+02
407             	3.69730021e+02
408             	3.69753224e+02
409             	3.69797833e+02
410             	3.69833712e+02
411             	3.69860356e+02
412             	3.69891504e+02
413             	3.69922488e+02
414             	3.69953989e+02
415             	3.69987388e+02
416             	3.70008808e+02
417             	3.70020132e+02
418             	3.70031542e+02
419             	3.70268153e+02
420             	3.70192311e+02
421             	3.70328856e+02
422             	3.70224416e+02
423             	3.70351406e+02
424             	3.70267871e+02
425             	3.70439986e+02
426             	3.70338751e+02
427             	3.70488187e+02
428             	3.70372388e+02
429             	3.70488690e+02
430             	3.70371595e+02
431             	3.70481031e+02
432             	3.70362392e+02
433             	3.70472173e+02
434             	3.70356349e+02
435             	3.70459477e+02
436             	3.70347489e+02
437             	3.70458045e+02
438             	3.70333311e+02
439             	3.70439450e+02
440             	3.70311678e+02
441             	3.70415388e+02
442             	3.70286691e+02
443             	3.70387566e+02
444             	3.70264909e+02
445             	3.70371880e+02
446             	3.70263288e+02
447             	3.70383467e+02
448             	3.70273872e+02
449             	3.70389178e+02
450             	3.70266581e+02
451             	3.70372500e+02
452             	3.70256907e+02
453             	3.70372178e+02
454             	3.70253028e+02
455             	3.70356710e+02
456             	3.70237443e+02
457             	3.70346510e+02
458             	3.70232472e+02
459             	3.70338357e+02
460             	3.70230791e+02
461             	3.70343608e+02
462             	3.70239734e+02
463             	3.70367843e+02
464             	3.70265287e+02
465             	3.70391848e+02
466             	3.70287552e+02
467             	3.70412348e+02
468             	3.70301029e+02
469             	3.70424805e+02
470             	3.70320253e+02
471             	3.70442809e+02
472             	3.70339448e+02
473             	3.70461425e+02
474             	3.70355828e+02
475             	3.70481524e+02
476             	3.70373238e+02
477             	3.70490357e+02
478             	3.70374090e+02
479             	3.70481667e+02
480             	3.70362943e+02
481             	3.70476921e+02
482             	3.70357069e+02
483             	3.70465081e+02
484             	3.70344221e+02
485             	3.70448866e+02
486             	3.70329929e+02
487             	3.70443844e+02
488             	3.70325772e+02
489             	3.70434338e+02
490             	3.70316493e+02
491             	3.70427203e+02
492             	3.70310230e+02
493             	3.70429724e+02
494             	3.70311766e+02
495             	3.70427628e+02
496             	3.70312829e+02
497             	3.70426443e+02
498             	3.70314349e+02
499             	3.70441309e+02
500             	3.70328292e+02
501             	3.70455621e+02
502             	3.70336703e+02
503             	3.70444794e+02
504             	3.70323136e+02
505             	3.70439961e+02
506             	3.70320182e+02
507             	3.70431341e+02
508             	3.70313220e+02
509             	3.70423507e+02
510             	3.70307201e+02
511             	3.70426070e+02
512             	3.70315823e+02
513             	3.70436664e+02
514             	3.70328577e+02
515             	3.70454666e+02
516             	3.70346167e+02
517             	3.70478109e+02
518             	3.70365603e+02
519             	3.70485172e+02
520             	3.70371761e+02
521             	3.70489680e+02
522             	3.70376503e+02
523             	3.70500187e+02
524             	3.70386500e+02
525             	3.70502885e+02
526             	3.70388279e+02
527             	3.70501583e+02
528             	3.70384663e+02
529             	3.70501805e+02
530             	3.70382968e+02
531             	3.70493970e+02
532             	3.70373890e+02
533             	3.70485235e+02
534             	3.70361883e+02
535             	3.70474130e+02
536             	3.70351870e+02
537             	3.70460656e+02
538             	3.70340795e+02
539             	3.70450953e+02
540             	3.70333040e+02
541             	3.70452472e+02
542             	3.70334795e+02
543             	3.70449122e+02
544             	3.70330712e+02
545             	3.70444879e+02
546             	3.70324562e+02
547             	3.70441388e+02
548             	3.70323230e+02
549             	3.70437349e+02
550             	3.70319964e+02
551             	3.70432752e+02
552             	3.70316468e+02
553             	3.70437891e+02
554             	3.70323620e+02
555             	3.70442421e+02
556             	3.70328693e+02
557             	3.70446154e+02
558             	3.70331754e+02
559             	3.70457337e+02
560             	3.70343132e+02
561             	3.70463572e+02
562             	3.70348331e+02
563             	3.70464899e+02
564             	3.70349881e+02
565             	3.70473354e+02
566             	3.70359765e+02
567             	3.70481085e+02
568             	3.70367255e+02
569             	3.70485388e+02
570             	3.70369652e+02
571             	3.70493537e+02
572             	3.70378186e+02
573             	3.70497280e+02
574             	3.70380552e+02
575             	3.70495520e+02
576             	3.70376173e+02
577             	3.70496879e+02
578             	3.70378076e+02
579             	3.70493125e+02
580             	3.70373787e+02
581             	3.70486331e+02
582             	3.70366459e+02
583             	3.70486362e+02
584             	3.70366878e+02
585             	3.70481075e+02
586             	3.70361508e+02
587             	3.70474306e+02
588             	3.70354397e+02
589             	3.70473167e+02
590             	3.70355081e+02
591             	3.70473218e+02
592             	3.70356392e+02
593             	3.70473275e+02
594             	3.70356130e+02
595             	3.70480813e+02
596             	3.70363419e+02
597             	3.70482483e+02
598             	3.70365251e+02
599             	3.70481599e+02
600             	3.70361896e+02
601             	3.70482267e+02
602             	3.70363304e+02
603             	3.70478939e+02
604             	3.70359680e+02
605             	3.70472787e+02
606             	3.70353697e+02
607             	3.70474969e+02
608             	3.70356456e+02
609             	3.70472768e+02
610             	3.70355513e+02
611             	3.70472457e+02
612             	3.70355086e+02
613             	3.70479435e+02
614             	3.70362382e+02
615             	3.70481134e+02
616             	3.70364399e+02
617             	3.70482893e+02
618             	3.70363977e+02
619             	3.70485802e+02
620             	3.70367968e+02
621             	3.70486183e+02
622             	3.70368993e+02
623             	3.70484540e+02
624             	3.70366450e+02
625             	3.70488618e+02
626             	3.70370011e+02
627             	3.70486138e+02
628             	3.70367891e+02
629             	3.70483141e+02
630             	3.70364024e+02
631             	3.70485686e+02
632             	3.70367111e+02
633             	3.70484326e+02
634             	3.70366469e+02
635             	3.70482521e+02
636             	3.70363956e+02
637             	3.70486541e+02
638             	3.70368282e+02
639             	3.70485842e+02
640             	3.70368026e+02
641             	3.70484066e+02
642             	3.70366041e+02
643             	3.70489452e+02
644             	3.70370786e+02
645             	3.70487345e+02
646             	3.70369503e+02
647             	3.70484641e+02
648             	3.70365878e+02
649             	3.70487462e+02
650             	3.70368024e+02
651             	3.70482966e+02
652             	3.70363700e+02
653             	3.70477542e+02
654             	3.70357941e+02
655             	3.70477460e+02
656             	3.70359199e+02
657             	3.70477088e+02
658             	3.70359640e+02
659             	3.70475730e+02
660             	3.70357217e+02
661             	3.70479862e+02
662             	3.70361824e+02
663             	3.70479606e+02
664             	3.70362278e+02
665             	3.70478613e+02
666             	3.70360838e+02
667             	3.70484048e+02
668             	3.70367241e+02
669             	3.70486473e+02
670             	3.70369743e+02
671             	3.70486352e+02
672             	3.70368574e+02
673             	3.70492190e+02
674             	3.70374528e+02
675             	3.70492559e+02
676             	3.70374259e+02
677             	3.70489104e+02
678             	3.70370369e+02
679             	3.70492427e+02
680             	3.70374033e+02
681             	3.70490948e+02
682             	3.70372673e+02
683             	3.70487432e+02
684             	3.70368745e+02
685             	3.70489772e+02
686             	3.70372522e+02
687             	3.70491591e+02
688             	3.70374764e+02
689             	3.70491869e+02
690             	3.70373936e+02
691             	3.70497038e+02
692             	3.70379659e+02
693             	3.70499140e+02
694             	3.70380891e+02
695             	3.70495563e+02
696             	3.70376729e+02
697             	3.70499238e+02
698             	3.70380394e+02
699             	3.70496240e+02
700             	3.70377047e+02
701             	3.70489679e+02
702             	3.70371333e+02
703             	3.70494038e+02
704             	3.70375448e+02
705             	3.70492069e+02
706             	3.70373142e+02
707             	3.70487521e+02
708             	3.70368508e+02
709             	3.70491058e+02
710             	3.70372725e+02
711             	3.70490332e+02
712             	3.70372596e+02
713             	3.70488314e+02
714             	3.70370077e+02
715             	3.70492962e+02
716             	3.70375037e+02
717             	3.70493429e+02
718             	3.70375145e+02
719             	3.70490171e+02
720             	3.70370924e+02
721             	3.70492831e+02
722             	3.70374102e+02
723             	3.70490828e+02
724             	3.70372941e+02
725             	3.70488428e+02
726             	3.70370010e+02
727             	3.70492479e+02
728             	3.70374874e+02
729             	3.70493168e+02
730             	3.70375976e+02
731             	3.70492087e+02
732             	3.70374155e+02
733             	3.70497467e+02
734             	3.70379626e+02
735             	3.70497331e+02
736             	3.70379404e+02
737             	3.70494838e+02
738             	3.70376215e+02
739             	3.70498823e+02
740             	3.70380624e+02
741             	3.70497619e+02
742             	3.70379782e+02
743             	3.70495691e+02
744             	3.70377455e+02
745             	3.70501043e+02
746             	3.70383448e+02
747             	3.70501882e+02
748             	3.70383579e+02
749             	3.70498731e+02
750             	3.70379243e+02
751             	3.70500765e+02
752             	3.70381220e+02
753             	3.70497070e+02
754             	3.70378106e+02
755             	3.70492435e+02
756             	3.70372939e+02
757             	3.70494351e+02
758             	3.70375238e+02
759             	3.70490797e+02
760             	3.70372925e+02
761             	3.70487143e+02
762             	3.70370335e+02
763             	3.70495646e+02
764             	3.70379489e+02
765             	3.70500198e+02
766             	3.70382076e+02
767             	3.70497164e+02
768             	3.70379522e+02
769             	3.70503839e+02
770             	3.70386377e+02
771             	3.70503817e+02
772             	3.70385925e+02
773             	3.70500726e+02
774             	3.70382027e+02
775             	3.70502458e+02
776             	3.70384312e+02
777             	3.70501666e+02
778             	3.70383519e+02
779             	3.70498433e+02
780             	3.70378898e+02
781             	3.70500410e+02
782             	3.70381098e+02
783             	3.70497925e+02
784             	3.70379310e+02
785             	3.70494076e+02
786             	3.70375487e+02
787             	3.70498292e+02
788             	3.70379865e+02
789             	3.70497418e+02
790             	3.70378455e+02
791             	3.70492529e+02
792             	3.70373071e+02
793             	3.70494925e+02
794             	3.70375626e+02
795             	3.70491417e+02
796             	3.70372581e+02
797             	3.70486239e+02
798             	3.70368401e+02
799             	3.70492039e+02
800             	3.70374238e+02
801             	3.70491903e+02
802             	3.70374612e+02
803             	3.70491429e+02
804             	3.70374195e+02
805             	3.70498918e+02
806             	3.70381807e+02
807             	3.70500745e+02
808             	3.70383795e+02
809             	3.70500700e+02
810             	3.70381745e+02
811             	3.70502998e+02
812             	3.70384604e+02
813             	3.70501599e+02
814             	3.70382638e+02
815             	3.70495410e+02
816             	3.70376159e+02
817             	3.70496659e+02
818             	3.70378287e+02
819             	3.70495057e+02
820             	3.70377359e+02
821             	3.70492813e+02
822             	3.70374315e+02
823             	3.70497794e+02
824             	3.70379416e+02
825             	3.70497921e+02
826             	3.70378808e+02
827             	3.70492757e+02
828             	3.70373531e+02
829             	3.70495470e+02
830             	3.70376738e+02
831             	3.70492890e+02
832             	3.70374443e+02
833             	3.70488540e+02
834             	3.70369416e+02
835             	3.70490446e+02
836             	3.70371854e+02
837             	3.70487867e+02
838             	3.70370064e+02
839             	3.70485706e+02
840             	3.70367644e+02
841             	3.70490714e+02
842             	3.70373164e+02
843             	3.70491537e+02
844             	3.70374581e+02
845             	3.70490915e+02
846             	3.70373602e+02
847             	3.70497575e+02
848             	3.70380290e+02
849             	3.70499180e+02
850             	3.70381152e+02
851             	3.70496145e+02
852             	3.70376679e+02
853             	3.70498094e+02
854             	3.70378968e+02
855             	3.70494957e+02
856             	3.70376069e+02
857             	3.70490105e+02
858             	3.70370525e+02
859             	3.70491421e+02
860             	3.70372384e+02
861             	3.70487471e+02
862             	3.70369816e+02
863             	3.70485792e+02
864             	3.70367758e+02
865             	3.70490574e+02
866             	3.70372940e+02
867             	3.70491192e+02
868             	3.70374050e+02
869             	3.70490787e+02
870             	3.70373280e+02
871             	3.70496874e+02
872             	3.70379725e+02
873             	3.70498744e+02
874             	3.70380953e+02
875             	3.70495958e+02
876             	3.70377706e+02
877             	3.70500764e+02
878             	3.70382796e+02
879             	3.70499990e+02
880             	3.70381344e+02
881             	3.70495918e+02
882             	3.70376284e+02
883             	3.70497688e+02
884             	3.70378480e+02
885             	3.70494566e+02
886             	3.70375678e+02
887             	3.70490091e+02
888             	3.70371133e+02
889             	3.70493341e+02
890             	3.70375574e+02
891             	3.70494035e+02
892             	3.70376480e+02
893             	3.70492806e+02
894             	3.70374725e+02
895             	3.70498469e+02
896             	3.70379867e+02
897             	3.70497058e+02
898             	3.70379251e+02
899             	3.70495061e+02
900             	3.70376495e+02
901             	3.70498663e+02
902             	3.70380488e+02
903             	3.70497622e+02
904             	3.70379567e+02
905             	3.70494872e+02
906             	3.70376106e+02
907             	3.70498410e+02
908             	3.70381239e+02
909             	3.70500518e+02
910             	3.70382639e+02
911             	3.70498383e+02
912             	3.70380098e+02
913             	3.70503475e+02
914             	3.70386484e+02
915             	3.70506724e+02
916             	3.70388699e+02
917             	3.70504015e+02
918             	3.70384885e+02
919             	3.70507230e+02
920             	3.70387963e+02
921             	3.70504041e+02
922             	3.70384846e+02
923             	3.70497698e+02
924             	3.70379520e+02
925             	3.70501178e+02
926             	3.70383818e+02
927             	3.70502326e+02
928             	3.70385299e+02
929             	3.70502345e+02
930             	3.70384180e+02
931             	3.70508197e+02
932             	3.70388622e+02
933             	3.70504615e+02