# Region        : cellZone component_1
# Cells         : 63
# Volume        : 9.36731562e-02
# Time          	volAverage(T)
1               	3.00471527e+02
2               	3.00935814e+02
3               	3.01367074e+02
4               	3.01777249e+02
5               	3.02173882e+02
6               	3.02560706e+02
7               	3.02938553e+02
8               	3.03309238e+02
9               	3.03666069e+02
10              	3.04009287e+02
11              	3.04343078e+02
12              	3.04667835e+02
13              	3.04982170e+02
14              	3.05288673e+02
15              	3.05584198e+02
16              	3.05873457e+02
17              	3.06156866e+02
18              	3.06438951e+02
19              	3.06716558e+02
20              	3.06988349e+02
21              	3.07254808e+02
22              	3.07509079e+02
23              	3.07763634e+02
24              	3.08023250e+02
25              	3.08275288e+02
26              	3.08528596e+02
27              	3.08783418e+02
28              	3.09041721e+02
29              	3.09301456e+02
30              	3.09562267e+02
31              	3.09820239e+02
32              	3.10073164e+02
33              	3.10314769e+02
34              	3.10547002e+02
35              	3.10768423e+02
36              	3.10984981e+02
37              	3.11189533e+02
38              	3.11364896e+02
39              	3.11520974e+02
40              	3.11666100e+02
41              	3.11802905e+02
42              	3.11910763e+02
43              	3.11996603e+02
44              	3.12099381e+02
45              	3.12200626e+02
46              	3.12288725e+02
47              	3.12377340e+02
48              	3.12473659e+02
49              	3.12581438e+02
50              	3.12698995e+02
51              	3.12826436e+02
52              	3.12952756e+02
53              	3.13075168e+02
54              	3.13190630e+02
55              	3.13277578e+02
56              	3.13345746e+02
57              	3.13420893e+02
58              	3.13504007e+02
59              	3.13595638e+02
60              	3.13685244e+02
61              	3.13773648e+02
62              	3.13853045e+02
63              	3.13909027e+02
64              	3.13981955e+02
65              	3.14034401e+02
66              	3.14079340e+02
67              	3.14125576e+02
68              	3.14188078e+02
69              	3.14261125e+02
70              	3.14361600e+02
71              	3.14468734e+02
72              	3.14574530e+02
73              	3.14669643e+02
74              	3.14751073e+02
75              	3.14825207e+02
76              	3.14861514e+02
77              	3.14893408e+02
78              	3.14947131e+02
79              	3.14972721e+02
80              	3.14992117e+02
81              	3.14995249e+02
82              	3.15009754e+02
83              	3.15033866e+02
84              	3.15075923e+02
85              	3.15119270e+02
86              	3.15139458e+02
87              	3.15144450e+02
88              	3.15132380e+02
89              	3.15095406e+02
90              	3.15047598e+02
91              	3.15028351e+02
92              	3.14994740e+02
93              	3.14950196e+02
94              	3.14915636e+02
95              	3.14895593e+02
96              	3.14895104e+02
97              	3.14931321e+02
98              	3.14989370e+02
99              	3.15008451e+02
100             	3.15015537e+02
101             	3.15004250e+02
102             	3.14988481e+02
103             	3.14955777e+02
104             	3.14935939e+02
105             	3.14931441e+02
106             	3.14926096e+02
107             	3.14921582e+02
108             	3.14917326e+02
109             	3.14918614e+02
110             	3.14941922e+02
111             	3.14965117e+02
112             	3.14999736e+02
113             	3.15030466e+02
114             	3.15075372e+02
115             	3.15107254e+02
116             	3.15111929e+02
117             	3.15097378e+02
118             	3.15068486e+02
119             	3.15052261e+02
120             	3.15060010e+02
121             	3.15078679e+02
122             	3.15101677e+02
123             	3.15130128e+02
124             	3.15158115e+02
125             	3.15188449e+02
126             	3.15219557e+02
127             	3.15245620e+02
128             	3.15272475e+02
129             	3.15299021e+02
130             	3.15328201e+02
131             	3.15361502e+02
132             	3.15399054e+02
133             	3.15448959e+02
134             	3.15504350e+02
135             	3.15567966e+02
136             	3.15636243e+02
137             	3.15709297e+02
138             	3.15796789e+02
139             	3.15889886e+02
140             	3.15991872e+02
141             	3.16087112e+02
142             	3.16164965e+02
143             	3.16250074e+02
144             	3.16342157e+02
145             	3.16424776e+02
146             	3.16501593e+02
147             	3.16571510e+02
148             	3.16624487e+02
149             	3.16663686e+02
150             	3.16706402e+02
151             	3.16752429e+02
152             	3.16784994e+02
153             	3.16795052e+02
154             	3.16792848e+02
155             	3.16783144e+02
156             	3.16774187e+02
157             	3.16770143e+02
158             	3.16770707e+02
159             	3.16765351e+02
160             	3.16769962e+02
161             	3.16765370e+02
162             	3.16771682e+02
163             	3.16782166e+02
164             	3.16810820e+02
165             	3.16845558e+02
166             	3.16885978e+02
167             	3.16931665e+02
168             	3.16982053e+02
169             	3.17034246e+02
170             	3.17084436e+02
171             	3.17131403e+02
172             	3.17184000e+02
173             	3.17221014e+02
174             	3.17269388e+02
175             	3.17317064e+02
176             	3.17366639e+02
177             	3.17407110e+02
178             	3.17437901e+02
179             	3.17460757e+02
180             	3.17485316e+02
181             	3.17510034e+02
182             	3.17534363e+02
183             	3.17558314e+02
184             	3.17579895e+02
185             	3.17602017e+02
186             	3.17623711e+02
187             	3.17639678e+02
188             	3.17644440e+02
189             	3.17638500e+02
190             	3.17627097e+02
191             	3.17619930e+02
192             	3.17620491e+02
193             	3.17624822e+02
194             	3.17636310e+02
195             	3.17651377e+02
196             	3.17660618e+02
197             	3.17664272e+02
198             	3.17657771e+02
199             	3.17657418e+02
200             	3.17658588e+02
201             	3.17666716e+02
202             	3.17682071e+02
203             	3.17704027e+02
204             	3.17730373e+02
205             	3.17760780e+02
206             	3.17794914e+02
207             	3.17834486e+02
208             	3.17876155e+02
209             	3.17920178e+02
210             	3.17970097e+02
211             	3.18023885e+02
212             	3.18074163e+02
213             	3.18122826e+02
214             	3.18168968e+02
215             	3.18211554e+02
216             	3.18250078e+02
217             	3.18286028e+02
218             	3.18320031e+02
219             	3.18350325e+02
220             	3.18375084e+02
221             	3.18397020e+02
222             	3.18418454e+02
223             	3.18437397e+02
224             	3.18454108e+02
225             	3.18471201e+02
226             	3.18489737e+02
227             	3.18508037e+02
228             	3.18526036e+02
229             	3.18547486e+02
230             	3.18573276e+02
231             	3.18600521e+02
232             	3.18625656e+02
233             	3.18642066e+02
234             	3.18664966e+02
235             	3.18689912e+02
236             	3.18710810e+02
237             	3.18732076e+02
238             	3.18755732e+02
239             	3.18774388e+02
240             	3.18791616e+02
241             	3.18809930e+02
242             	3.18829375e+02
243             	3.18845947e+02
244             	3.18849793e+02
245             	3.18858962e+02
246             	3.18871433e+02
247             	3.18878136e+02
248             	3.18885546e+02
249             	3.18897899e+02
250             	3.18912514e+02
251             	3.18927823e+02
252             	3.18944840e+02
253             	3.18964547e+02
254             	3.18985317e+02
255             	3.19006576e+02
256             	3.19028442e+02
257             	3.19054809e+02
258             	3.19071774e+02
259             	3.19092558e+02
260             	3.19115637e+02
261             	3.19140628e+02
262             	3.19166169e+02
263             	3.19192358e+02
264             	3.19218306e+02
265             	3.19243520e+02
266             	3.19267970e+02
267             	3.19291221e+02
268             	3.19313984e+02
269             	3.19334238e+02
270             	3.19350782e+02
271             	3.19360986e+02
272             	3.19368435e+02
273             	3.19379724e+02
274             	3.19388103e+02
275             	3.19392259e+02
276             	3.19401153e+02
277             	3.19412079e+02
278             	3.19425485e+02
279             	3.19439815e+02
280             	3.19454152e+02
281             	3.19469865e+02
282             	3.19486321e+02
283             	3.19504433e+02
284             	3.19522189e+02
285             	3.19542633e+02
286             	3.19564083e+02
287             	3.19588896e+02
288             	3.19614868e+02
289             	3.19636792e+02
290             	3.19655465e+02
291             	3.19675815e+02
292             	3.19694322e+02
293             	3.19710945e+02
294             	3.19724912e+02
295             	3.19737360e+02
296             	3.19747723e+02
297             	3.19754374e+02
298             	3.19758053e+02
299             	3.19760231e+02
300             	3.19761938e+02
301             	3.19756600e+02
302             	3.19751688e+02
303             	3.19744969e+02
304             	3.19739218e+02
305             	3.19735987e+02
306             	3.19733647e+02
307             	3.19731555e+02
308             	3.19729927e+02
309             	3.19730403e+02
310             	3.19732395e+02
311             	3.19736069e+02
312             	3.19745745e+02
313             	3.19745898e+02
314             	3.19751467e+02
315             	3.19758898e+02
316             	3.19767507e+02
317             	3.19778119e+02
318             	3.19788915e+02
319             	3.19799589e+02
320             	3.19808655e+02
321             	3.19815707e+02
322             	3.19820613e+02
323             	3.19828232e+02
324             	3.19837437e+02
325             	3.19845397e+02
326             	3.19849501e+02
327             	3.19853387e+02
328             	3.19857154e+02
329             	3.19859970e+02
330             	3.19860978e+02
331             	3.19863731e+02
332             	3.19870641e+02
333             	3.19871985e+02
334             	3.19877405e+02
335             	3.19887453e+02
336             	3.19904246e+02
337             	3.19916033e+02
338             	3.19935361e+02
339             	3.19942817e+02
340             	3.19954542e+02
341             	3.19965835e+02
342             	3.19969839e+02
343             	3.19978561e+02
344             	3.19987303e+02
345             	3.19992030e+02
346             	3.19995920e+02
347             	3.19998279e+02
348             	3.20000073e+02
349             	3.20000113e+02
350             	3.19999099e+02
351             	3.19997479e+02
352             	3.19995822e+02
353             	3.19993482e+02
354             	3.19991112e+02
355             	3.19988526e+02
356             	3.19985687e+02
357             	3.19981733e+02
358             	3.19978913e+02
359             	3.19976761e+02
360             	3.19976076e+02
361             	3.19975706e+02
362             	3.19973689e+02
363             	3.19975016e+02
364             	3.19976469e+02
365             	3.19979349e+02
366             	3.19985931e+02
367             	3.19994166e+02
368             	3.20007482e+02
369             	3.20016103e+02
370             	3.20024086e+02
371             	3.20033322e+02
372             	3.20043186e+02
373             	3.20053198e+02
374             	3.20062940e+02
375             	3.20074139e+02
376             	3.20085122e+02
377             	3.20095755e+02
378             	3.20104282e+02
379             	3.20110908e+02
380             	3.20116387e+02
381             	3.20120878e+02
382             	3.20124713e+02
383             	3.20127845e+02
384             	3.20130288e+02
385             	3.20132084e+02
386             	3.20133541e+02
387             	3.20134993e+02
388             	3.20136545e+02
389             	3.20138323e+02
390             	3.20140983e+02
391             	3.20143226e+02
392             	3.20145639e+02
393             	3.20148429e+02
394             	3.20151443e+02
395             	3.20154663e+02
396             	3.20157666e+02
397             	3.20159688e+02
398             	3.20161822e+02
399             	3.20158521e+02
400             	3.20159427e+02
401             	3.20162800e+02
402             	3.20165743e+02
403             	3.20168078e+02
404             	3.20170804e+02
405             	3.20174867e+02
406             	3.20180000e+02
407             	3.20184485e+02
408             	3.20189249e+02
409             	3.20194503e+02
410             	3.20200492e+02
411             	3.20205813e+02
412             	3.20211041e+02
413             	3.20218967e+02
414             	3.20224132e+02
415             	3.20228128e+02
416             	3.20231537e+02
417             	3.20234544e+02
418             	3.20236552e+02
419             	3.20237351e+02
420             	3.20237351e+02
421             	3.20235620e+02
422             	3.20232943e+02
423             	3.20228547e+02
424             	3.20223032e+02
425             	3.20217024e+02
426             	3.20210440e+02
427             	3.20203160e+02
428             	3.20195830e+02
429             	3.20184126e+02
430             	3.20177717e+02
431             	3.20169396e+02
432             	3.20165008e+02
433             	3.20163770e+02
434             	3.20164370e+02
435             	3.20166389e+02
436             	3.20170087e+02
437             	3.20175487e+02
438             	3.20182725e+02
439             	3.20191210e+02
440             	3.20201368e+02
441             	3.20211912e+02
442             	3.20222557e+02
443             	3.20235977e+02
444             	3.20252246e+02
445             	3.20267692e+02
446             	3.20279147e+02
447             	3.20287820e+02
448             	3.20294721e+02
449             	3.20299926e+02
450             	3.20300698e+02
451             	3.20301742e+02
452             	3.20301563e+02
453             	3.20299191e+02
454             	3.20294882e+02
455             	3.20289378e+02
456             	3.20283483e+02
457             	3.20278410e+02
458             	3.20272688e+02
459             	3.20265768e+02
460             	3.20255347e+02
461             	3.20239920e+02
462             	3.20229818e+02
463             	3.20221940e+02
464             	3.20216502e+02
465             	3.20211892e+02
466             	3.20208138e+02
467             	3.20205833e+02
468             	3.20204977e+02
469             	3.20205209e+02
470             	3.20206607e+02
471             	3.20208964e+02
472             	3.20212567e+02
473             	3.20216917e+02
474             	3.20221385e+02
475             	3.20225962e+02
476             	3.20229703e+02
477             	3.20237492e+02
478             	3.20243739e+02
479             	3.20249061e+02
480             	3.20253567e+02
481             	3.20258583e+02
482             	3.20263692e+02
483             	3.20268187e+02
484             	3.20271946e+02
485             	3.20274941e+02
486             	3.20277839e+02
487             	3.20278644e+02
488             	3.20278350e+02
489             	3.20275669e+02
490             	3.20269711e+02
491             	3.20267131e+02
492             	3.20266173e+02
493             	3.20264718e+02
494             	3.20263669e+02
495             	3.20260868e+02
496             	3.20256314e+02
497             	3.20252122e+02
498             	3.20246409e+02
499             	3.20243523e+02
500             	3.20242625e+02
501             	3.20242766e+02
502             	3.20243995e+02
503             	3.20246186e+02
504             	3.20249372e+02
505             	3.20254370e+02
506             	3.20260747e+02
507             	3.20265147e+02
508             	3.20271873e+02
509             	3.20279643e+02
510             	3.20286877e+02
511             	3.20292970e+02
512             	3.20297967e+02
513             	3.20302143e+02
514             	3.20304015e+02
515             	3.20307140e+02
516             	3.20306098e+02
517             	3.20302719e+02
518             	3.20296817e+02
519             	3.20291957e+02
520             	3.20287272e+02
521             	3.20281987e+02
522             	3.20276023e+02
523             	3.20269872e+02
524             	3.20263794e+02
525             	3.20256961e+02
526             	3.20250350e+02
527             	3.20244445e+02
528             	3.20239593e+02
529             	3.20234566e+02
530             	3.20228389e+02
531             	3.20222427e+02
532             	3.20217078e+02
533             	3.20212006e+02
534             	3.20208713e+02
535             	3.20206489e+02
536             	3.20205000e+02
537             	3.20204334e+02
538             	3.20204669e+02
539             	3.20206071e+02
540             	3.20208317e+02
541             	3.20210590e+02
542             	3.20215268e+02
543             	3.20220993e+02
544             	3.20227311e+02
545             	3.20235979e+02
546             	3.20242872e+02
547             	3.20249639e+02
548             	3.20257175e+02
549             	3.20265109e+02
550             	3.20273117e+02
551             	3.20281032e+02
552             	3.20288687e+02
553             	3.20295955e+02
554             	3.20302624e+02
555             	3.20310439e+02
556             	3.20318050e+02
557             	3.20324974e+02
558             	3.20331137e+02
559             	3.20336388e+02
560             	3.20341103e+02
561             	3.20345850e+02
562             	3.20349073e+02
563             	3.20351456e+02
564             	3.20353126e+02
565             	3.20354397e+02
566             	3.20355241e+02
567             	3.20354959e+02
568             	3.20355184e+02
569             	3.20354482e+02
570             	3.20353621e+02
571             	3.20353055e+02
572             	3.20352817e+02
573             	3.20353080e+02
574             	3.20353544e+02
575             	3.20354224e+02
576             	3.20355748e+02
577             	3.20357528e+02
578             	3.20358918e+02
579             	3.20360111e+02
580             	3.20361151e+02
581             	3.20361823e+02
582             	3.20362006e+02
583             	3.20361500e+02
584             	3.20360013e+02
585             	3.20357795e+02
586             	3.20355023e+02
587             	3.20351718e+02
588             	3.20347953e+02
589             	3.20343922e+02
590             	3.20339798e+02
591             	3.20335679e+02
592             	3.20331630e+02
593             	3.20328401e+02
594             	3.20325914e+02
595             	3.20322270e+02
596             	3.20321129e+02
597             	3.20321630e+02
598             	3.20323216e+02
599             	3.20324467e+02
600             	3.20327057e+02
601             	3.20328515e+02
602             	3.20329905e+02
603             	3.20331419e+02
604             	3.20332758e+02
605             	3.20333755e+02
606             	3.20334380e+02
607             	3.20334922e+02
608             	3.20335251e+02
609             	3.20335369e+02
610             	3.20335306e+02
611             	3.20335093e+02
612             	3.20334783e+02
613             	3.20334227e+02
614             	3.20332188e+02
615             	3.20330574e+02
616             	3.20329875e+02
617             	3.20329743e+02
618             	3.20329042e+02
619             	3.20328759e+02
620             	3.20327816e+02
621             	3.20325630e+02
622             	3.20323258e+02
623             	3.20321048e+02
624             	3.20318974e+02
625             	3.20317042e+02
626             	3.20315081e+02
627             	3.20313144e+02
628             	3.20312672e+02
629             	3.20312998e+02
630             	3.20312734e+02
631             	3.20312416e+02
632             	3.20311908e+02
633             	3.20311235e+02
634             	3.20311629e+02
635             	3.20310558e+02
636             	3.20308373e+02
637             	3.20306637e+02
638             	3.20305250e+02
639             	3.20302046e+02
640             	3.20300187e+02
641             	3.20297127e+02
642             	3.20294593e+02
643             	3.20293071e+02
644             	3.20292587e+02
645             	3.20290884e+02
646             	3.20288548e+02
647             	3.20286260e+02
648             	3.20284215e+02
649             	3.20282286e+02
650             	3.20280942e+02
651             	3.20279240e+02
652             	3.20277992e+02
653             	3.20277307e+02
654             	3.20276990e+02
655             	3.20277403e+02
656             	3.20278722e+02
657             	3.20280793e+02
658             	3.20283619e+02
659             	3.20287045e+02
660             	3.20291254e+02
661             	3.20296230e+02
662             	3.20301925e+02
663             	3.20308138e+02
664             	3.20315088e+02
665             	3.20322415e+02
666             	3.20329821e+02
667             	3.20337000e+02
668             	3.20343468e+02
669             	3.20349555e+02
670             	3.20355048e+02
671             	3.20362390e+02
672             	3.20370047e+02
673             	3.20376430e+02
674             	3.20381121e+02
675             	3.20385478e+02
676             	3.20386833e+02
677             	3.20387289e+02
678             	3.20385692e+02
679             	3.20383882e+02
680             	3.20379450e+02
681             	3.20375618e+02
682             	3.20372770e+02
683             	3.20370482e+02
684             	3.20368203e+02
685             	3.20366380e+02
686             	3.20365050e+02
687             	3.20364772e+02
688             	3.20365433e+02
689             	3.20366770e+02
690             	3.20368671e+02
691             	3.20371671e+02
692             	3.20375566e+02
693             	3.20379928e+02
694             	3.20383976e+02
695             	3.20388212e+02
696             	3.20392389e+02
697             	3.20401357e+02
698             	3.20405533e+02
699             	3.20407645e+02
700             	3.20409462e+02
701             	3.20411013e+02
702             	3.20411783e+02
703             	3.20411427e+02
704             	3.20409710e+02
705             	3.20404731e+02
706             	3.20398474e+02
707             	3.20393568e+02
708             	3.20388717e+02
709             	3.20382060e+02
710             	3.20375951e+02
711             	3.20370585e+02
712             	3.20365054e+02
713             	3.20362730e+02
714             	3.20357056e+02
715             	3.20348821e+02
716             	3.20344139e+02
717             	3.20342308e+02
718             	3.20340393e+02
719             	3.20341289e+02
720             	3.20346019e+02
721             	3.20350638e+02
722             	3.20359668e+02
723             	3.20370729e+02
724             	3.20382808e+02
725             	3.20396554e+02
726             	3.20412583e+02
727             	3.20427192e+02
728             	3.20441749e+02
729             	3.20455215e+02
730             	3.20466024e+02
731             	3.20474652e+02
732             	3.20481900e+02
733             	3.20486289e+02
734             	3.20488786e+02
735             	3.20491607e+02
736             	3.20493300e+02
737             	3.20493236e+02
738             	3.20491756e+02
739             	3.20489551e+02
740             	3.20482045e+02
741             	3.20472019e+02
742             	3.20462489e+02
743             	3.20451740e+02
744             	3.20439606e+02
745             	3.20426439e+02
746             	3.20412372e+02
747             	3.20397344e+02
748             	3.20382117e+02
749             	3.20363546e+02
750             	3.20348627e+02
751             	3.20337760e+02
752             	3.20327428e+02
753             	3.20317849e+02
754             	3.20309525e+02
755             	3.20302812e+02
756             	3.20297880e+02
757             	3.20294699e+02
758             	3.20293277e+02
759             	3.20293505e+02
760             	3.20296199e+02
761             	3.20298870e+02
762             	3.20304833e+02
763             	3.20312408e+02
764             	3.20319578e+02
765             	3.20329612e+02
766             	3.20341222e+02
767             	3.20354477e+02
768             	3.20367275e+02
769             	3.20378407e+02
770             	3.20388836e+02
771             	3.20398666e+02
772             	3.20407642e+02
773             	3.20415970e+02
774             	3.20423368e+02
775             	3.20429452e+02
776             	3.20434305e+02
777             	3.20438340e+02
778             	3.20441412e+02
779             	3.20442214e+02
780             	3.20443891e+02
781             	3.20445517e+02
782             	3.20447119e+02
783             	3.20447700e+02
784             	3.20446480e+02
785             	3.20444634e+02
786             	3.20439981e+02
787             	3.20434147e+02
788             	3.20427665e+02
789             	3.20421549e+02
790             	3.20415411e+02
791             	3.20409287e+02
792             	3.20403192e+02
793             	3.20397954e+02
794             	3.20393976e+02
795             	3.20392853e+02
796             	3.20392888e+02
797             	3.20393386e+02
798             	3.20393935e+02
799             	3.20394548e+02
800             	3.20395340e+02
801             	3.20397335e+02
802             	3.20398415e+02
803             	3.20399310e+02
804             	3.20400415e+02
805             	3.20400911e+02
806             	3.20401046e+02
807             	3.20403725e+02
808             	3.20402664e+02
809             	3.20399791e+02
810             	3.20396837e+02
811             	3.20394117e+02
812             	3.20389071e+02
813             	3.20382470e+02
814             	3.20373186e+02
815             	3.20363253e+02
816             	3.20349440e+02
817             	3.20339219e+02
818             	3.20326707e+02
819             	3.20317434e+02
820             	3.20304574e+02
821             	3.20294924e+02
822             	3.20288456e+02
823             	3.20284060e+02
824             	3.20281437e+02
825             	3.20279767e+02
826             	3.20280151e+02
827             	3.20282424e+02
828             	3.20290564e+02
829             	3.20304292e+02
830             	3.20323562e+02
831             	3.20336938e+02
832             	3.20354510e+02
833             	3.20372528e+02
834             	3.20389800e+02
835             	3.20407377e+02
836             	3.20421956e+02
837             	3.20435132e+02
838             	3.20446286e+02
839             	3.20454995e+02
840             	3.20461452e+02
841             	3.20465873e+02
842             	3.20468340e+02
843             	3.20468575e+02
844             	3.20467283e+02
845             	3.20462207e+02
846             	3.20454307e+02
847             	3.20447683e+02
848             	3.20436242e+02
849             	3.20424620e+02
850             	3.20411066e+02
851             	3.20395580e+02
852             	3.20380961e+02
853             	3.20364313e+02
854             	3.20349855e+02
855             	3.20337210e+02
856             	3.20323804e+02
857             	3.20314769e+02
858             	3.20308210e+02
859             	3.20302490e+02
860             	3.20297267e+02
861             	3.20292216e+02
862             	3.20292054e+02
863             	3.20294195e+02
864             	3.20301187e+02
865             	3.20302192e+02
866             	3.20307278e+02
867             	3.20314177e+02
868             	3.20321055e+02
869             	3.20326405e+02
870             	3.20329899e+02
871             	3.20331364e+02
872             	3.20334658e+02
873             	3.20337216e+02
874             	3.20337780e+02
875             	3.20336543e+02
876             	3.20333994e+02
877             	3.20332052e+02
878             	3.20328672e+02
879             	3.20323355e+02
880             	3.20316874e+02
881             	3.20310024e+02
882             	3.20297417e+02
883             	3.20288325e+02
884             	3.20282202e+02
885             	3.20275968e+02
886             	3.20271169e+02
887             	3.20267758e+02
888             	3.20265956e+02
889             	3.20266208e+02
890             	3.20268722e+02
891             	3.20273034e+02
892             	3.20278765e+02
893             	3.20286698e+02
894             	3.20295109e+02
895             	3.20306801e+02
896             	3.20317293e+02
897             	3.20329981e+02
898             	3.20339066e+02
899             	3.20346347e+02
900             	3.20352391e+02
901             	3.20356839e+02
902             	3.20359399e+02
903             	3.20359708e+02
904             	3.20357856e+02
905             	3.20352580e+02
906             	3.20344913e+02
907             	3.20336005e+02
908             	3.20324927e+02
909             	3.20306722e+02
910             	3.20290433e+02
911             	3.20275693e+02
912             	3.20260633e+02
913             	3.20245242e+02
914             	3.20230179e+02
915             	3.20215860e+02
916             	3.20202551e+02
917             	3.20190315e+02
918             	3.20180310e+02
919             	3.20171648e+02
920             	3.20164138e+02
921             	3.20158255e+02
922             	3.20153974e+02
923             	3.20151395e+02
924             	3.20151392e+02
925             	3.20152765e+02
926             	3.20153846e+02
927             	3.20159594e+02
928             	3.20166727e+02
929             	3.20176145e+02
930             	3.20188005e+02
931             	3.20202459e+02
932             	3.20215361e+02
933             	3.20228039e+02