# Region        : cellZone fluid
# Cells         : 10111
# Volume        : 1.83245272e+01
# Time          	volAverage(T)
1               	3.00000167e+02
2               	3.00000305e+02
3               	3.00001336e+02
4               	3.00002864e+02
5               	3.00003926e+02
6               	3.00005143e+02
7               	3.00006489e+02
8               	3.00008033e+02
9               	3.00009825e+02
10              	3.00012008e+02
11              	3.00014379e+02
12              	3.00017015e+02
13              	3.00019847e+02
14              	3.00023254e+02
15              	3.00026404e+02
16              	3.00029091e+02
17              	3.00032597e+02
18              	3.00035373e+02
19              	3.00039721e+02
20              	3.00044065e+02
21              	3.00048409e+02
22              	3.00052890e+02
23              	3.00056147e+02
24              	3.00061391e+02
25              	3.00065875e+02
26              	3.00070229e+02
27              	3.00074309e+02
28              	3.00078701e+02
29              	3.00083574e+02
30              	3.00088618e+02
31              	3.00093102e+02
32              	3.00098228e+02
33              	3.00103814e+02
34              	3.00111773e+02
35              	3.00117442e+02
36              	3.00123688e+02
37              	3.00129135e+02
38              	3.00134894e+02
39              	3.00140689e+02
40              	3.00146314e+02
41              	3.00151578e+02
42              	3.00157041e+02
43              	3.00163580e+02
44              	3.00171716e+02
45              	3.00178032e+02
46              	3.00181626e+02
47              	3.00187062e+02
48              	3.00193411e+02
49              	3.00199146e+02
50              	3.00204997e+02
51              	3.00210660e+02
52              	3.00216501e+02
53              	3.00222418e+02
54              	3.00228045e+02
55              	3.00233478e+02
56              	3.00238680e+02
57              	3.00244553e+02
58              	3.00253695e+02
59              	3.00260411e+02
60              	3.00265547e+02
61              	3.00270408e+02
62              	3.00275575e+02
63              	3.00282087e+02
64              	3.00287324e+02
65              	3.00292857e+02
66              	3.00297998e+02
67              	3.00302879e+02
68              	3.00310344e+02
69              	3.00316703e+02
70              	3.00321573e+02
71              	3.00326980e+02
72              	3.00331990e+02
73              	3.00337974e+02
74              	3.00344363e+02
75              	3.00351753e+02
76              	3.00357742e+02
77              	3.00364601e+02
78              	3.00369362e+02
79              	3.00373626e+02
80              	3.00378091e+02
81              	3.00383165e+02
82              	3.00388811e+02
83              	3.00392638e+02
84              	3.00397477e+02
85              	3.00403681e+02
86              	3.00409005e+02
87              	3.00413380e+02
88              	3.00417609e+02
89              	3.00425962e+02
90              	3.00433033e+02
91              	3.00437605e+02
92              	3.00443911e+02
93              	3.00446653e+02
94              	3.00450844e+02
95              	3.00454625e+02
96              	3.00458734e+02
97              	3.00463350e+02
98              	3.00467687e+02
99              	3.00473013e+02
100             	3.00478225e+02
101             	3.00484441e+02
102             	3.00491022e+02
103             	3.00498404e+02
104             	3.00502693e+02
105             	3.00507845e+02
106             	3.00511931e+02
107             	3.00516781e+02
108             	3.00521163e+02
109             	3.00525102e+02
110             	3.00527686e+02
111             	3.00532184e+02
112             	3.00537333e+02
113             	3.00544277e+02
114             	3.00550211e+02
115             	3.00553918e+02
116             	3.00559202e+02
117             	3.00562348e+02
118             	3.00567878e+02
119             	3.00570279e+02
120             	3.00572397e+02
121             	3.00578246e+02
122             	3.00582400e+02
123             	3.00586243e+02
124             	3.00590571e+02
125             	3.00593575e+02
126             	3.00599560e+02
127             	3.00603239e+02
128             	3.00607986e+02
129             	3.00611262e+02
130             	3.00614107e+02
131             	3.00616552e+02
132             	3.00620216e+02
133             	3.00621033e+02
134             	3.00623310e+02
135             	3.00626025e+02
136             	3.00632372e+02
137             	3.00635746e+02
138             	3.00638244e+02
139             	3.00643318e+02
140             	3.00649105e+02
141             	3.00651088e+02
142             	3.00654578e+02
143             	3.00658740e+02
144             	3.00660768e+02
145             	3.00663266e+02
146             	3.00665964e+02
147             	3.00669888e+02
148             	3.00676130e+02
149             	3.00680716e+02
150             	3.00685447e+02
151             	3.00685194e+02
152             	3.00688272e+02
153             	3.00692524e+02
154             	3.00695512e+02
155             	3.00698130e+02
156             	3.00698938e+02
157             	3.00699814e+02
158             	3.00702336e+02
159             	3.00703345e+02
160             	3.00704299e+02
161             	3.00704631e+02
162             	3.00706635e+02
163             	3.00707981e+02
164             	3.00708731e+02
165             	3.00710300e+02
166             	3.00712426e+02
167             	3.00714593e+02
168             	3.00716375e+02
169             	3.00716367e+02
170             	3.00720317e+02
171             	3.00720348e+02
172             	3.00722493e+02
173             	3.00722373e+02
174             	3.00722296e+02
175             	3.00723047e+02
176             	3.00723493e+02
177             	3.00723808e+02
178             	3.00725253e+02
179             	3.00725725e+02
180             	3.00728291e+02
181             	3.00730847e+02
182             	3.00732766e+02
183             	3.00734515e+02
184             	3.00738443e+02
185             	3.00737454e+02
186             	3.00739872e+02
187             	3.00739569e+02
188             	3.00737924e+02
189             	3.00736529e+02
190             	3.00734499e+02
191             	3.00735391e+02
192             	3.00734837e+02
193             	3.00734102e+02
194             	3.00735198e+02
195             	3.00736728e+02
196             	3.00739934e+02
197             	3.00740274e+02
198             	3.00740251e+02
199             	3.00740429e+02
200             	3.00742710e+02
201             	3.00744674e+02
202             	3.00744402e+02
203             	3.00749153e+02
204             	3.00749155e+02
205             	3.00749011e+02
206             	3.00750639e+02
207             	3.00751937e+02
208             	3.00752939e+02
209             	3.00753205e+02
210             	3.00755772e+02
211             	3.00757112e+02
212             	3.00757193e+02
213             	3.00758135e+02
214             	3.00756534e+02
215             	3.00756780e+02
216             	3.00756408e+02
217             	3.00758192e+02
218             	3.00759949e+02
219             	3.00761501e+02
220             	3.00763628e+02
221             	3.00765001e+02
222             	3.00765878e+02
223             	3.00765782e+02
224             	3.00764781e+02
225             	3.00767093e+02
226             	3.00765969e+02
227             	3.00763090e+02
228             	3.00763593e+02
229             	3.00760826e+02
230             	3.00759420e+02
231             	3.00757474e+02
232             	3.00755584e+02
233             	3.00754359e+02
234             	3.00754605e+02
235             	3.00753410e+02
236             	3.00752496e+02
237             	3.00751134e+02
238             	3.00748630e+02
239             	3.00747664e+02
240             	3.00746058e+02
241             	3.00743929e+02
242             	3.00741391e+02
243             	3.00739895e+02
244             	3.00738715e+02
245             	3.00739051e+02
246             	3.00739472e+02
247             	3.00737479e+02
248             	3.00736151e+02
249             	3.00733647e+02
250             	3.00732100e+02
251             	3.00730634e+02
252             	3.00728297e+02
253             	3.00726373e+02
254             	3.00725866e+02
255             	3.00724697e+02
256             	3.00723854e+02
257             	3.00723153e+02
258             	3.00723802e+02
259             	3.00724398e+02
260             	3.00724475e+02
261             	3.00723342e+02
262             	3.00722340e+02
263             	3.00721150e+02
264             	3.00720100e+02
265             	3.00718981e+02
266             	3.00717646e+02
267             	3.00716595e+02
268             	3.00714677e+02
269             	3.00714258e+02
270             	3.00714810e+02
271             	3.00715192e+02
272             	3.00715413e+02
273             	3.00715792e+02
274             	3.00716949e+02
275             	3.00717205e+02
276             	3.00717208e+02
277             	3.00717545e+02
278             	3.00716451e+02
279             	3.00714656e+02
280             	3.00714404e+02
281             	3.00714454e+02
282             	3.00711896e+02
283             	3.00709634e+02
284             	3.00708274e+02
285             	3.00707314e+02
286             	3.00706773e+02
287             	3.00707161e+02
288             	3.00706991e+02
289             	3.00705708e+02
290             	3.00703917e+02
291             	3.00702890e+02
292             	3.00702840e+02
293             	3.00702836e+02
294             	3.00702062e+02
295             	3.00701954e+02
296             	3.00702530e+02
297             	3.00702949e+02
298             	3.00701858e+02
299             	3.00701587e+02
300             	3.00700838e+02
301             	3.00700861e+02
302             	3.00700524e+02
303             	3.00699967e+02
304             	3.00698979e+02
305             	3.00698764e+02
306             	3.00699713e+02
307             	3.00699872e+02
308             	3.00699766e+02
309             	3.00699887e+02
310             	3.00701159e+02
311             	3.00702483e+02
312             	3.00703111e+02
313             	3.00701289e+02
314             	3.00700145e+02
315             	3.00699170e+02
316             	3.00697892e+02
317             	3.00696616e+02
318             	3.00695670e+02
319             	3.00696089e+02
320             	3.00695678e+02
321             	3.00695420e+02
322             	3.00695424e+02
323             	3.00695138e+02
324             	3.00694839e+02
325             	3.00696115e+02
326             	3.00694118e+02
327             	3.00692627e+02
328             	3.00691243e+02
329             	3.00690143e+02
330             	3.00688949e+02
331             	3.00687406e+02
332             	3.00686652e+02
333             	3.00686444e+02
334             	3.00686298e+02
335             	3.00686229e+02
336             	3.00685895e+02
337             	3.00685504e+02
338             	3.00685489e+02
339             	3.00685341e+02
340             	3.00685284e+02
341             	3.00685070e+02
342             	3.00684856e+02
343             	3.00683698e+02
344             	3.00682973e+02
345             	3.00683119e+02
346             	3.00681699e+02
347             	3.00680866e+02
348             	3.00680317e+02
349             	3.00679903e+02
350             	3.00680518e+02
351             	3.00680028e+02
352             	3.00679854e+02
353             	3.00680952e+02
354             	3.00680233e+02
355             	3.00680883e+02
356             	3.00681149e+02
357             	3.00681160e+02
358             	3.00681089e+02
359             	3.00681057e+02
360             	3.00681640e+02
361             	3.00681085e+02
362             	3.00680994e+02
363             	3.00680964e+02
364             	3.00680420e+02
365             	3.00680327e+02
366             	3.00680430e+02
367             	3.00680664e+02
368             	3.00680547e+02
369             	3.00681023e+02
370             	3.00681283e+02
371             	3.00680979e+02
372             	3.00681504e+02
373             	3.00681640e+02
374             	3.00681877e+02
375             	3.00681900e+02
376             	3.00682093e+02
377             	3.00682127e+02
378             	3.00682143e+02
379             	3.00681806e+02
380             	3.00681747e+02
381             	3.00681398e+02
382             	3.00681472e+02
383             	3.00682274e+02
384             	3.00681744e+02
385             	3.00681236e+02
386             	3.00681668e+02
387             	3.00681753e+02
388             	3.00681762e+02
389             	3.00681316e+02
390             	3.00681148e+02
391             	3.00680982e+02
392             	3.00680966e+02
393             	3.00681496e+02
394             	3.00681652e+02
395             	3.00681821e+02
396             	3.00681844e+02
397             	3.00681889e+02
398             	3.00682181e+02
399             	3.00682044e+02
400             	3.00682035e+02
401             	3.00682301e+02
402             	3.00681821e+02
403             	3.00681742e+02
404             	3.00681482e+02
405             	3.00681485e+02
406             	3.00681400e+02
407             	3.00681417e+02
408             	3.00681365e+02
409             	3.00681627e+02
410             	3.00681856e+02
411             	3.00682006e+02
412             	3.00681820e+02
413             	3.00682109e+02
414             	3.00682428e+02
415             	3.00682627e+02
416             	3.00682805e+02
417             	3.00682883e+02
418             	3.00682971e+02
419             	3.00682949e+02
420             	3.00683303e+02
421             	3.00683167e+02
422             	3.00683037e+02
423             	3.00682964e+02
424             	3.00682765e+02
425             	3.00682657e+02
426             	3.00682705e+02
427             	3.00682721e+02
428             	3.00682859e+02
429             	3.00683026e+02
430             	3.00683220e+02
431             	3.00682970e+02
432             	3.00682901e+02
433             	3.00683391e+02
434             	3.00683546e+02
435             	3.00683598e+02
436             	3.00683597e+02
437             	3.00683940e+02
438             	3.00683929e+02
439             	3.00683917e+02
440             	3.00683790e+02
441             	3.00683455e+02
442             	3.00683501e+02
443             	3.00683509e+02
444             	3.00683670e+02
445             	3.00683654e+02
446             	3.00683749e+02
447             	3.00683785e+02
448             	3.00683865e+02
449             	3.00683975e+02
450             	3.00684124e+02
451             	3.00683907e+02
452             	3.00684021e+02
453             	3.00684141e+02
454             	3.00684287e+02
455             	3.00684431e+02
456             	3.00684610e+02
457             	3.00684556e+02
458             	3.00684504e+02
459             	3.00684397e+02
460             	3.00684403e+02
461             	3.00684366e+02
462             	3.00684432e+02
463             	3.00684436e+02
464             	3.00684514e+02
465             	3.00684460e+02
466             	3.00684461e+02
467             	3.00684379e+02
468             	3.00684367e+02
469             	3.00684390e+02
470             	3.00684450e+02
471             	3.00684438e+02
472             	3.00684475e+02
473             	3.00684373e+02
474             	3.00684341e+02
475             	3.00684236e+02
476             	3.00684341e+02
477             	3.00684414e+02
478             	3.00684554e+02
479             	3.00684653e+02
480             	3.00684813e+02
481             	3.00684855e+02
482             	3.00684941e+02
483             	3.00684958e+02
484             	3.00685085e+02
485             	3.00685114e+02
486             	3.00685191e+02
487             	3.00685201e+02
488             	3.00685327e+02
489             	3.00685349e+02
490             	3.00685452e+02
491             	3.00685491e+02
492             	3.00685610e+02
493             	3.00685647e+02
494             	3.00685716e+02
495             	3.00685693e+02
496             	3.00685727e+02
497             	3.00685784e+02
498             	3.00685797e+02
499             	3.00685786e+02
500             	3.00685900e+02
501             	3.00685917e+02
502             	3.00686003e+02
503             	3.00686008e+02
504             	3.00686054e+02
505             	3.00686052e+02
506             	3.00686113e+02
507             	3.00686081e+02
508             	3.00686131e+02
509             	3.00686154e+02
510             	3.00686258e+02
511             	3.00686300e+02
512             	3.00686437e+02
513             	3.00686460e+02
514             	3.00686560e+02
515             	3.00686557e+02
516             	3.00686621e+02
517             	3.00686607e+02
518             	3.00686673e+02
519             	3.00686758e+02
520             	3.00686860e+02
521             	3.00686881e+02
522             	3.00686976e+02
523             	3.00686996e+02
524             	3.00687025e+02
525             	3.00686952e+02
526             	3.00686978e+02
527             	3.00686941e+02
528             	3.00686987e+02
529             	3.00686906e+02
530             	3.00686976e+02
531             	3.00687049e+02
532             	3.00687118e+02
533             	3.00687110e+02
534             	3.00687170e+02
535             	3.00687155e+02
536             	3.00687205e+02
537             	3.00687170e+02
538             	3.00687194e+02
539             	3.00687127e+02
540             	3.00687134e+02
541             	3.00687147e+02
542             	3.00687229e+02
543             	3.00687225e+02
544             	3.00687300e+02
545             	3.00687307e+02
546             	3.00687338e+02
547             	3.00687305e+02
548             	3.00687345e+02
549             	3.00687317e+02
550             	3.00687381e+02
551             	3.00687389e+02
552             	3.00687470e+02
553             	3.00687489e+02
554             	3.00687590e+02
555             	3.00687603e+02
556             	3.00687690e+02
557             	3.00687684e+02
558             	3.00687753e+02
559             	3.00687741e+02
560             	3.00687803e+02
561             	3.00687801e+02
562             	3.00687860e+02
563             	3.00687846e+02
564             	3.00687914e+02
565             	3.00687912e+02
566             	3.00687995e+02
567             	3.00687983e+02
568             	3.00688045e+02
569             	3.00688013e+02
570             	3.00688053e+02
571             	3.00688012e+02
572             	3.00688059e+02
573             	3.00688038e+02
574             	3.00688084e+02
575             	3.00688081e+02
576             	3.00688138e+02
577             	3.00688117e+02
578             	3.00688167e+02
579             	3.00688140e+02
580             	3.00688190e+02
581             	3.00688160e+02
582             	3.00688206e+02
583             	3.00688169e+02
584             	3.00688204e+02
585             	3.00688166e+02
586             	3.00688213e+02
587             	3.00688180e+02
588             	3.00688228e+02
589             	3.00688204e+02
590             	3.00688259e+02
591             	3.00688239e+02
592             	3.00688298e+02
593             	3.00688279e+02
594             	3.00688339e+02
595             	3.00688321e+02
596             	3.00688380e+02
597             	3.00688361e+02
598             	3.00688418e+02
599             	3.00688399e+02
600             	3.00688459e+02
601             	3.00688447e+02
602             	3.00688502e+02
603             	3.00688480e+02
604             	3.00688539e+02
605             	3.00688517e+02
606             	3.00688578e+02
607             	3.00688562e+02
608             	3.00688620e+02
609             	3.00688599e+02
610             	3.00688651e+02
611             	3.00688626e+02
612             	3.00688678e+02
613             	3.00688650e+02
614             	3.00688698e+02
615             	3.00688668e+02
616             	3.00688717e+02
617             	3.00688686e+02
618             	3.00688730e+02
619             	3.00688698e+02
620             	3.00688743e+02
621             	3.00688706e+02
622             	3.00688741e+02
623             	3.00688703e+02
624             	3.00688744e+02
625             	3.00688708e+02
626             	3.00688753e+02
627             	3.00688724e+02
628             	3.00688774e+02
629             	3.00688747e+02
630             	3.00688795e+02
631             	3.00688762e+02
632             	3.00688799e+02
633             	3.00688759e+02
634             	3.00688800e+02
635             	3.00688766e+02
636             	3.00688816e+02
637             	3.00688797e+02
638             	3.00688857e+02
639             	3.00688839e+02
640             	3.00688896e+02
641             	3.00688877e+02
642             	3.00688929e+02
643             	3.00688903e+02
644             	3.00688953e+02
645             	3.00688924e+02
646             	3.00688972e+02
647             	3.00688946e+02
648             	3.00688997e+02
649             	3.00688973e+02
650             	3.00689026e+02
651             	3.00689001e+02
652             	3.00689050e+02
653             	3.00689020e+02
654             	3.00689065e+02
655             	3.00689031e+02
656             	3.00689073e+02
657             	3.00689036e+02
658             	3.00689075e+02
659             	3.00689038e+02
660             	3.00689080e+02
661             	3.00689039e+02
662             	3.00689078e+02
663             	3.00689039e+02
664             	3.00689079e+02
665             	3.00689041e+02
666             	3.00689079e+02
667             	3.00689038e+02
668             	3.00689077e+02
669             	3.00689035e+02
670             	3.00689071e+02
671             	3.00689033e+02
672             	3.00689076e+02
673             	3.00689040e+02
674             	3.00689084e+02
675             	3.00689052e+02
676             	3.00689099e+02
677             	3.00689067e+02
678             	3.00689114e+02
679             	3.00689083e+02
680             	3.00689126e+02
681             	3.00689103e+02
682             	3.00689157e+02
683             	3.00689130e+02
684             	3.00689182e+02
685             	3.00689152e+02
686             	3.00689199e+02
687             	3.00689167e+02
688             	3.00689212e+02
689             	3.00689182e+02
690             	3.00689230e+02
691             	3.00689198e+02
692             	3.00689248e+02
693             	3.00689209e+02
694             	3.00689249e+02
695             	3.00689213e+02
696             	3.00689253e+02
697             	3.00689215e+02
698             	3.00689262e+02
699             	3.00689216e+02
700             	3.00689250e+02
701             	3.00689209e+02
702             	3.00689249e+02
703             	3.00689209e+02
704             	3.00689252e+02
705             	3.00689212e+02
706             	3.00689249e+02
707             	3.00689208e+02
708             	3.00689244e+02
709             	3.00689204e+02
710             	3.00689241e+02
711             	3.00689205e+02
712             	3.00689248e+02
713             	3.00689211e+02
714             	3.00689252e+02
715             	3.00689218e+02
716             	3.00689260e+02
717             	3.00689227e+02
718             	3.00689271e+02
719             	3.00689236e+02
720             	3.00689277e+02
721             	3.00689240e+02
722             	3.00689282e+02
723             	3.00689254e+02
724             	3.00689296e+02
725             	3.00689261e+02
726             	3.00689305e+02
727             	3.00689271e+02
728             	3.00689316e+02
729             	3.00689282e+02
730             	3.00689324e+02
731             	3.00689289e+02
732             	3.00689331e+02
733             	3.00689293e+02
734             	3.00689337e+02
735             	3.00689299e+02
736             	3.00689340e+02
737             	3.00689302e+02
738             	3.00689340e+02
739             	3.00689308e+02
740             	3.00689351e+02
741             	3.00689319e+02
742             	3.00689363e+02
743             	3.00689324e+02
744             	3.00689363e+02
745             	3.00689323e+02
746             	3.00689359e+02
747             	3.00689318e+02
748             	3.00689354e+02
749             	3.00689310e+02
750             	3.00689345e+02
751             	3.00689304e+02
752             	3.00689344e+02
753             	3.00689307e+02
754             	3.00689349e+02
755             	3.00689312e+02
756             	3.00689353e+02
757             	3.00689316e+02
758             	3.00689354e+02
759             	3.00689314e+02
760             	3.00689353e+02
761             	3.00689314e+02
762             	3.00689354e+02
763             	3.00689311e+02
764             	3.00689359e+02
765             	3.00689328e+02
766             	3.00689374e+02
767             	3.00689340e+02
768             	3.00689384e+02
769             	3.00689345e+02
770             	3.00689385e+02
771             	3.00689347e+02
772             	3.00689387e+02
773             	3.00689350e+02
774             	3.00689391e+02
775             	3.00689354e+02
776             	3.00689396e+02
777             	3.00689360e+02
778             	3.00689403e+02
779             	3.00689366e+02
780             	3.00689406e+02
781             	3.00689368e+02
782             	3.00689408e+02
783             	3.00689370e+02
784             	3.00689410e+02
785             	3.00689371e+02
786             	3.00689410e+02
787             	3.00689370e+02
788             	3.00689409e+02
789             	3.00689370e+02
790             	3.00689410e+02
791             	3.00689370e+02
792             	3.00689408e+02
793             	3.00689369e+02
794             	3.00689407e+02
795             	3.00689367e+02
796             	3.00689406e+02
797             	3.00689367e+02
798             	3.00689406e+02
799             	3.00689368e+02
800             	3.00689408e+02
801             	3.00689371e+02
802             	3.00689412e+02
803             	3.00689374e+02
804             	3.00689415e+02
805             	3.00689378e+02
806             	3.00689418e+02
807             	3.00689381e+02
808             	3.00689421e+02
809             	3.00689383e+02
810             	3.00689424e+02
811             	3.00689387e+02
812             	3.00689428e+02
813             	3.00689391e+02
814             	3.00689431e+02
815             	3.00689392e+02
816             	3.00689432e+02
817             	3.00689394e+02
818             	3.00689433e+02
819             	3.00689397e+02
820             	3.00689439e+02
821             	3.00689402e+02
822             	3.00689442e+02
823             	3.00689404e+02
824             	3.00689443e+02
825             	3.00689405e+02
826             	3.00689444e+02
827             	3.00689405e+02
828             	3.00689443e+02
829             	3.00689404e+02
830             	3.00689442e+02
831             	3.00689401e+02
832             	3.00689439e+02
833             	3.00689399e+02
834             	3.00689437e+02
835             	3.00689398e+02
836             	3.00689437e+02
837             	3.00689398e+02
838             	3.00689437e+02
839             	3.00689398e+02
840             	3.00689438e+02
841             	3.00689399e+02
842             	3.00689439e+02
843             	3.00689400e+02
844             	3.00689440e+02
845             	3.00689401e+02
846             	3.00689441e+02
847             	3.00689404e+02
848             	3.00689445e+02
849             	3.00689407e+02
850             	3.00689449e+02
851             	3.00689412e+02
852             	3.00689454e+02
853             	3.00689417e+02
854             	3.00689459e+02
855             	3.00689423e+02
856             	3.00689464e+02
857             	3.00689428e+02
858             	3.00689469e+02
859             	3.00689431e+02
860             	3.00689472e+02
861             	3.00689434e+02
862             	3.00689474e+02
863             	3.00689435e+02
864             	3.00689475e+02
865             	3.00689435e+02
866             	3.00689474e+02
867             	3.00689434e+02
868             	3.00689473e+02
869             	3.00689434e+02
870             	3.00689472e+02
871             	3.00689433e+02
872             	3.00689471e+02
873             	3.00689431e+02
874             	3.00689469e+02
875             	3.00689428e+02
876             	3.00689465e+02
877             	3.00689425e+02
878             	3.00689462e+02
879             	3.00689422e+02
880             	3.00689463e+02
881             	3.00689422e+02
882             	3.00689460e+02
883             	3.00689421e+02
884             	3.00689460e+02
885             	3.00689421e+02
886             	3.00689461e+02
887             	3.00689422e+02
888             	3.00689463e+02
889             	3.00689427e+02
890             	3.00689468e+02
891             	3.00689432e+02
892             	3.00689473e+02
893             	3.00689437e+02
894             	3.00689477e+02
895             	3.00689440e+02
896             	3.00689480e+02
897             	3.00689441e+02
898             	3.00689481e+02
899             	3.00689442e+02
900             	3.00689482e+02
901             	3.00689444e+02
902             	3.00689484e+02
903             	3.00689445e+02
904             	3.00689485e+02
905             	3.00689446e+02
906             	3.00689485e+02
907             	3.00689445e+02
908             	3.00689485e+02
909             	3.00689444e+02
910             	3.00689482e+02
911             	3.00689442e+02
912             	3.00689480e+02
913             	3.00689440e+02
914             	3.00689479e+02
915             	3.00689440e+02
916             	3.00689478e+02
917             	3.00689439e+02
918             	3.00689477e+02
919             	3.00689438e+02
920             	3.00689477e+02
921             	3.00689437e+02
922             	3.00689477e+02
923             	3.00689438e+02
924             	3.00689477e+02
925             	3.00689439e+02
926             	3.00689478e+02
927             	3.00689440e+02
928             	3.00689480e+02
929             	3.00689443e+02
930             	3.00689484e+02
931             	3.00689446e+02
932             	3.00689486e+02
933             	3.00689449e+02