# Region        : cellZone pcb
# Cells         : 656
# Volume        : 1.17607836e+00
# Time          	volAverage(T)
1               	3.00002158e+02
2               	3.00006445e+02
3               	3.00012724e+02
4               	3.00020827e+02
5               	3.00030220e+02
6               	3.00041126e+02
7               	3.00053453e+02
8               	3.00067045e+02
9               	3.00081684e+02
10              	3.00097509e+02
11              	3.00114308e+02
12              	3.00132336e+02
13              	3.00151271e+02
14              	3.00170930e+02
15              	3.00191439e+02
16              	3.00212524e+02
17              	3.00234491e+02
18              	3.00256889e+02
19              	3.00279957e+02
20              	3.00303450e+02
21              	3.00327854e+02
22              	3.00352746e+02
23              	3.00378218e+02
24              	3.00403886e+02
25              	3.00429885e+02
26              	3.00456502e+02
27              	3.00483657e+02
28              	3.00511315e+02
29              	3.00538999e+02
30              	3.00567215e+02
31              	3.00595670e+02
32              	3.00624385e+02
33              	3.00653631e+02
34              	3.00683407e+02
35              	3.00713457e+02
36              	3.00743338e+02
37              	3.00773219e+02
38              	3.00802833e+02
39              	3.00832253e+02
40              	3.00862208e+02
41              	3.00892038e+02
42              	3.00921834e+02
43              	3.00952145e+02
44              	3.00982691e+02
45              	3.01013486e+02
46              	3.01043699e+02
47              	3.01074062e+02
48              	3.01103956e+02
49              	3.01134265e+02
50              	3.01164206e+02
51              	3.01194218e+02
52              	3.01224506e+02
53              	3.01254875e+02
54              	3.01284904e+02
55              	3.01314265e+02
56              	3.01343644e+02
57              	3.01373369e+02
58              	3.01403032e+02
59              	3.01433313e+02
60              	3.01464014e+02
61              	3.01494492e+02
62              	3.01523762e+02
63              	3.01552728e+02
64              	3.01582160e+02
65              	3.01612521e+02
66              	3.01642820e+02
67              	3.01672145e+02
68              	3.01700683e+02
69              	3.01728395e+02
70              	3.01755779e+02
71              	3.01782989e+02
72              	3.01809688e+02
73              	3.01835033e+02
74              	3.01861522e+02
75              	3.01888606e+02
76              	3.01915031e+02
77              	3.01940860e+02
78              	3.01968066e+02
79              	3.01996153e+02
80              	3.02022614e+02
81              	3.02047964e+02
82              	3.02072601e+02
83              	3.02096561e+02
84              	3.02120182e+02
85              	3.02143510e+02
86              	3.02165759e+02
87              	3.02188084e+02
88              	3.02210105e+02
89              	3.02233624e+02
90              	3.02256806e+02
91              	3.02281566e+02
92              	3.02306607e+02
93              	3.02330315e+02
94              	3.02353688e+02
95              	3.02376468e+02
96              	3.02399220e+02
97              	3.02422615e+02
98              	3.02446781e+02
99              	3.02471380e+02
100             	3.02495485e+02
101             	3.02519222e+02
102             	3.02542651e+02
103             	3.02565123e+02
104             	3.02587224e+02
105             	3.02609820e+02
106             	3.02630724e+02
107             	3.02651573e+02
108             	3.02672221e+02
109             	3.02693060e+02
110             	3.02714033e+02
111             	3.02735488e+02
112             	3.02757793e+02
113             	3.02780232e+02
114             	3.02801887e+02
115             	3.02823587e+02
116             	3.02845419e+02
117             	3.02866125e+02
118             	3.02886978e+02
119             	3.02906892e+02
120             	3.02927488e+02
121             	3.02947575e+02
122             	3.02967508e+02
123             	3.02987621e+02
124             	3.03007854e+02
125             	3.03028063e+02
126             	3.03048808e+02
127             	3.03068678e+02
128             	3.03086755e+02
129             	3.03105385e+02
130             	3.03123918e+02
131             	3.03142884e+02
132             	3.03161327e+02
133             	3.03179899e+02
134             	3.03199248e+02
135             	3.03219006e+02
136             	3.03239377e+02
137             	3.03259398e+02
138             	3.03279126e+02
139             	3.03298769e+02
140             	3.03318239e+02
141             	3.03336995e+02
142             	3.03354904e+02
143             	3.03372939e+02
144             	3.03390586e+02
145             	3.03408127e+02
146             	3.03425558e+02
147             	3.03442952e+02
148             	3.03460121e+02
149             	3.03477760e+02
150             	3.03494800e+02
151             	3.03511603e+02
152             	3.03528072e+02
153             	3.03544198e+02
154             	3.03560393e+02
155             	3.03576651e+02
156             	3.03592758e+02
157             	3.03608836e+02
158             	3.03625023e+02
159             	3.03641351e+02
160             	3.03657948e+02
161             	3.03674374e+02
162             	3.03690709e+02
163             	3.03706765e+02
164             	3.03722362e+02
165             	3.03737718e+02
166             	3.03753207e+02
167             	3.03768912e+02
168             	3.03784515e+02
169             	3.03800240e+02
170             	3.03815996e+02
171             	3.03831488e+02
172             	3.03846714e+02
173             	3.03861973e+02
174             	3.03877145e+02
175             	3.03892490e+02
176             	3.03907726e+02
177             	3.03922974e+02
178             	3.03938380e+02
179             	3.03953575e+02
180             	3.03968870e+02
181             	3.03983963e+02
182             	3.03998963e+02
183             	3.04013796e+02
184             	3.04028273e+02
185             	3.04042675e+02
186             	3.04056953e+02
187             	3.04071100e+02
188             	3.04085009e+02
189             	3.04099008e+02
190             	3.04113183e+02
191             	3.04127162e+02
192             	3.04141033e+02
193             	3.04154741e+02
194             	3.04168303e+02
195             	3.04181739e+02
196             	3.04195038e+02
197             	3.04208304e+02
198             	3.04221407e+02
199             	3.04234509e+02
200             	3.04247551e+02
201             	3.04260648e+02
202             	3.04273782e+02
203             	3.04286664e+02
204             	3.04299503e+02
205             	3.04312234e+02
206             	3.04324948e+02
207             	3.04337523e+02
208             	3.04349904e+02
209             	3.04362239e+02
210             	3.04374377e+02
211             	3.04386459e+02
212             	3.04398702e+02
213             	3.04411024e+02
214             	3.04423389e+02
215             	3.04435491e+02
216             	3.04447680e+02
217             	3.04459805e+02
218             	3.04471728e+02
219             	3.04483548e+02
220             	3.04495025e+02
221             	3.04506222e+02
222             	3.04517285e+02
223             	3.04528354e+02
224             	3.04539342e+02
225             	3.04550334e+02
226             	3.04561374e+02
227             	3.04572374e+02
228             	3.04583348e+02
229             	3.04594246e+02
230             	3.04604853e+02
231             	3.04615350e+02
232             	3.04625800e+02
233             	3.04636287e+02
234             	3.04646877e+02
235             	3.04657484e+02
236             	3.04668098e+02
237             	3.04678706e+02
238             	3.04689264e+02
239             	3.04699696e+02
240             	3.04710130e+02
241             	3.04720429e+02
242             	3.04730633e+02
243             	3.04740699e+02
244             	3.04750675e+02
245             	3.04760651e+02
246             	3.04770470e+02
247             	3.04780171e+02
248             	3.04789687e+02
249             	3.04799018e+02
250             	3.04808291e+02
251             	3.04817613e+02
252             	3.04826784e+02
253             	3.04835789e+02
254             	3.04844694e+02
255             	3.04853561e+02
256             	3.04862266e+02
257             	3.04871032e+02
258             	3.04879799e+02
259             	3.04888593e+02
260             	3.04897430e+02
261             	3.04906222e+02
262             	3.04914950e+02
263             	3.04923554e+02
264             	3.04931968e+02
265             	3.04940192e+02
266             	3.04948317e+02
267             	3.04956353e+02
268             	3.04964299e+02
269             	3.04972154e+02
270             	3.04979823e+02
271             	3.04987332e+02
272             	3.04994812e+02
273             	3.05002231e+02
274             	3.05009697e+02
275             	3.05017187e+02
276             	3.05024639e+02
277             	3.05031980e+02
278             	3.05039239e+02
279             	3.05046559e+02
280             	3.05053649e+02
281             	3.05060602e+02
282             	3.05067518e+02
283             	3.05074385e+02
284             	3.05081307e+02
285             	3.05088209e+02
286             	3.05095062e+02
287             	3.05101877e+02
288             	3.05108612e+02
289             	3.05115341e+02
290             	3.05122050e+02
291             	3.05128811e+02
292             	3.05135540e+02
293             	3.05142199e+02
294             	3.05148700e+02
295             	3.05155080e+02
296             	3.05161420e+02
297             	3.05167775e+02
298             	3.05174025e+02
299             	3.05180292e+02
300             	3.05186559e+02
301             	3.05192846e+02
302             	3.05199252e+02
303             	3.05205598e+02
304             	3.05211963e+02
305             	3.05218155e+02
306             	3.05224127e+02
307             	3.05230011e+02
308             	3.05235716e+02
309             	3.05241315e+02
310             	3.05246891e+02
311             	3.05252373e+02
312             	3.05257871e+02
313             	3.05263289e+02
314             	3.05268612e+02
315             	3.05273863e+02
316             	3.05279053e+02
317             	3.05284155e+02
318             	3.05289206e+02
319             	3.05294160e+02
320             	3.05299155e+02
321             	3.05304082e+02
322             	3.05308935e+02
323             	3.05313801e+02
324             	3.05318726e+02
325             	3.05323612e+02
326             	3.05328476e+02
327             	3.05333401e+02
328             	3.05338318e+02
329             	3.05343285e+02
330             	3.05348172e+02
331             	3.05352950e+02
332             	3.05357743e+02
333             	3.05362566e+02
334             	3.05367209e+02
335             	3.05371742e+02
336             	3.05376254e+02
337             	3.05380746e+02
338             	3.05385239e+02
339             	3.05389724e+02
340             	3.05394163e+02
341             	3.05398644e+02
342             	3.05403070e+02
343             	3.05407437e+02
344             	3.05411862e+02
345             	3.05416314e+02
346             	3.05420743e+02
347             	3.05425166e+02
348             	3.05429497e+02
349             	3.05433713e+02
350             	3.05437941e+02
351             	3.05442079e+02
352             	3.05446002e+02
353             	3.05449804e+02
354             	3.05453423e+02
355             	3.05457165e+02
356             	3.05461005e+02
357             	3.05464769e+02
358             	3.05468512e+02
359             	3.05472262e+02
360             	3.05476023e+02
361             	3.05479784e+02
362             	3.05483506e+02
363             	3.05487112e+02
364             	3.05490670e+02
365             	3.05494059e+02
366             	3.05497275e+02
367             	3.05500517e+02
368             	3.05503777e+02
369             	3.05507068e+02
370             	3.05510274e+02
371             	3.05513483e+02
372             	3.05516849e+02
373             	3.05520071e+02
374             	3.05523097e+02
375             	3.05526045e+02
376             	3.05529007e+02
377             	3.05532046e+02
378             	3.05535173e+02
379             	3.05538264e+02
380             	3.05541455e+02
381             	3.05544703e+02
382             	3.05547998e+02
383             	3.05551317e+02
384             	3.05554661e+02
385             	3.05557960e+02
386             	3.05561212e+02
387             	3.05564382e+02
388             	3.05567475e+02
389             	3.05570494e+02
390             	3.05573416e+02
391             	3.05576229e+02
392             	3.05578992e+02
393             	3.05581706e+02
394             	3.05584382e+02
395             	3.05587128e+02
396             	3.05589837e+02
397             	3.05592629e+02
398             	3.05595462e+02
399             	3.05598208e+02
400             	3.05600882e+02
401             	3.05603519e+02
402             	3.05606108e+02
403             	3.05608769e+02
404             	3.05611449e+02
405             	3.05614059e+02
406             	3.05616621e+02
407             	3.05619140e+02
408             	3.05621603e+02
409             	3.05623958e+02
410             	3.05626145e+02
411             	3.05628222e+02
412             	3.05630246e+02
413             	3.05632311e+02
414             	3.05634444e+02
415             	3.05636604e+02
416             	3.05638790e+02
417             	3.05640986e+02
418             	3.05643199e+02
419             	3.05645418e+02
420             	3.05647616e+02
421             	3.05649786e+02
422             	3.05651910e+02
423             	3.05654004e+02
424             	3.05656056e+02
425             	3.05658104e+02
426             	3.05660181e+02
427             	3.05662263e+02
428             	3.05664344e+02
429             	3.05666373e+02
430             	3.05668370e+02
431             	3.05670353e+02
432             	3.05672316e+02
433             	3.05674260e+02
434             	3.05676178e+02
435             	3.05678064e+02
436             	3.05679916e+02
437             	3.05681762e+02
438             	3.05683616e+02
439             	3.05685501e+02
440             	3.05687383e+02
441             	3.05689283e+02
442             	3.05691181e+02
443             	3.05693103e+02
444             	3.05695068e+02
445             	3.05697031e+02
446             	3.05699019e+02
447             	3.05701002e+02
448             	3.05702985e+02
449             	3.05704949e+02
450             	3.05706881e+02
451             	3.05708806e+02
452             	3.05710728e+02
453             	3.05712643e+02
454             	3.05714562e+02
455             	3.05716471e+02
456             	3.05718321e+02
457             	3.05720077e+02
458             	3.05721748e+02
459             	3.05723343e+02
460             	3.05724868e+02
461             	3.05726321e+02
462             	3.05727716e+02
463             	3.05729061e+02
464             	3.05730359e+02
465             	3.05731609e+02
466             	3.05732827e+02
467             	3.05734017e+02
468             	3.05735167e+02
469             	3.05736298e+02
470             	3.05737418e+02
471             	3.05738539e+02
472             	3.05739646e+02
473             	3.05740728e+02
474             	3.05741801e+02
475             	3.05742873e+02
476             	3.05743955e+02
477             	3.05745053e+02
478             	3.05746168e+02
479             	3.05747330e+02
480             	3.05748537e+02
481             	3.05749779e+02
482             	3.05751047e+02
483             	3.05752331e+02
484             	3.05753629e+02
485             	3.05754936e+02
486             	3.05756280e+02
487             	3.05757607e+02
488             	3.05758941e+02
489             	3.05760221e+02
490             	3.05761532e+02
491             	3.05762902e+02
492             	3.05764345e+02
493             	3.05765801e+02
494             	3.05767291e+02
495             	3.05768754e+02
496             	3.05770147e+02
497             	3.05771531e+02
498             	3.05772905e+02
499             	3.05774275e+02
500             	3.05775607e+02
501             	3.05776828e+02
502             	3.05778033e+02
503             	3.05779213e+02
504             	3.05780350e+02
505             	3.05781446e+02
506             	3.05782491e+02
507             	3.05783492e+02
508             	3.05784456e+02
509             	3.05785389e+02
510             	3.05786289e+02
511             	3.05787156e+02
512             	3.05788014e+02
513             	3.05788845e+02
514             	3.05789640e+02
515             	3.05790412e+02
516             	3.05791160e+02
517             	3.05791902e+02
518             	3.05792634e+02
519             	3.05793354e+02
520             	3.05794081e+02
521             	3.05794811e+02
522             	3.05795551e+02
523             	3.05796305e+02
524             	3.05797064e+02
525             	3.05797821e+02
526             	3.05798591e+02
527             	3.05799388e+02
528             	3.05800206e+02
529             	3.05801034e+02
530             	3.05801868e+02
531             	3.05802700e+02
532             	3.05803527e+02
533             	3.05804396e+02
534             	3.05805210e+02
535             	3.05805988e+02
536             	3.05806765e+02
537             	3.05807520e+02
538             	3.05808312e+02
539             	3.05809123e+02
540             	3.05809948e+02
541             	3.05810774e+02
542             	3.05811590e+02
543             	3.05812404e+02
544             	3.05813263e+02
545             	3.05814206e+02
546             	3.05815156e+02
547             	3.05816057e+02
548             	3.05816931e+02
549             	3.05817795e+02
550             	3.05818650e+02
551             	3.05819498e+02
552             	3.05820318e+02
553             	3.05821105e+02
554             	3.05821879e+02
555             	3.05822570e+02
556             	3.05823289e+02
557             	3.05823929e+02
558             	3.05824471e+02
559             	3.05824952e+02
560             	3.05825388e+02
561             	3.05825797e+02
562             	3.05826192e+02
563             	3.05826591e+02
564             	3.05827004e+02
565             	3.05827432e+02
566             	3.05827881e+02
567             	3.05828334e+02
568             	3.05828766e+02
569             	3.05829229e+02
570             	3.05829734e+02
571             	3.05830275e+02
572             	3.05830831e+02
573             	3.05831403e+02
574             	3.05831952e+02
575             	3.05832466e+02
576             	3.05832942e+02
577             	3.05833388e+02
578             	3.05833806e+02
579             	3.05834202e+02
580             	3.05834608e+02
581             	3.05835032e+02
582             	3.05835471e+02
583             	3.05835941e+02
584             	3.05836427e+02
585             	3.05836901e+02
586             	3.05837387e+02
587             	3.05837892e+02
588             	3.05838440e+02
589             	3.05839011e+02
590             	3.05839599e+02
591             	3.05840222e+02
592             	3.05840878e+02
593             	3.05841554e+02
594             	3.05842207e+02
595             	3.05842800e+02
596             	3.05843351e+02
597             	3.05843884e+02
598             	3.05844406e+02
599             	3.05844906e+02
600             	3.05845389e+02
601             	3.05845838e+02
602             	3.05846236e+02
603             	3.05846618e+02
604             	3.05846973e+02
605             	3.05847303e+02
606             	3.05847639e+02
607             	3.05847964e+02
608             	3.05848279e+02
609             	3.05848581e+02
610             	3.05848863e+02
611             	3.05849123e+02
612             	3.05849356e+02
613             	3.05849577e+02
614             	3.05849797e+02
615             	3.05850020e+02
616             	3.05850247e+02
617             	3.05850475e+02
618             	3.05850701e+02
619             	3.05850920e+02
620             	3.05851133e+02
621             	3.05851338e+02
622             	3.05851552e+02
623             	3.05851781e+02
624             	3.05852016e+02
625             	3.05852258e+02
626             	3.05852498e+02
627             	3.05852736e+02
628             	3.05852979e+02
629             	3.05853229e+02
630             	3.05853492e+02
631             	3.05853779e+02
632             	3.05854118e+02
633             	3.05854489e+02
634             	3.05854899e+02
635             	3.05855351e+02
636             	3.05855836e+02
637             	3.05856367e+02
638             	3.05856901e+02
639             	3.05857447e+02
640             	3.05857991e+02
641             	3.05858526e+02
642             	3.05859042e+02
643             	3.05859549e+02
644             	3.05860046e+02
645             	3.05860566e+02
646             	3.05861094e+02
647             	3.05861540e+02
648             	3.05861913e+02
649             	3.05862261e+02
650             	3.05862573e+02
651             	3.05862839e+02
652             	3.05863073e+02
653             	3.05863282e+02
654             	3.05863457e+02
655             	3.05863605e+02
656             	3.05863732e+02
657             	3.05863834e+02
658             	3.05863916e+02
659             	3.05863971e+02
660             	3.05864007e+02
661             	3.05864021e+02
662             	3.05864019e+02
663             	3.05864014e+02
664             	3.05864021e+02
665             	3.05864048e+02
666             	3.05864084e+02
667             	3.05864145e+02
668             	3.05864231e+02
669             	3.05864332e+02
670             	3.05864445e+02
671             	3.05864566e+02
672             	3.05864693e+02
673             	3.05864826e+02
674             	3.05864970e+02
675             	3.05865126e+02
676             	3.05865300e+02
677             	3.05865495e+02
678             	3.05865717e+02
679             	3.05865983e+02
680             	3.05866296e+02
681             	3.05866629e+02
682             	3.05866999e+02
683             	3.05867400e+02
684             	3.05867829e+02
685             	3.05868273e+02
686             	3.05868736e+02
687             	3.05869191e+02
688             	3.05869638e+02
689             	3.05870083e+02
690             	3.05870505e+02
691             	3.05870911e+02
692             	3.05871287e+02
693             	3.05871634e+02
694             	3.05871942e+02
695             	3.05872211e+02
696             	3.05872452e+02
697             	3.05872670e+02
698             	3.05872849e+02
699             	3.05872990e+02
700             	3.05873146e+02
701             	3.05873280e+02
702             	3.05873384e+02
703             	3.05873465e+02
704             	3.05873526e+02
705             	3.05873562e+02
706             	3.05873570e+02
707             	3.05873547e+02
708             	3.05873500e+02
709             	3.05873444e+02
710             	3.05873385e+02
711             	3.05873328e+02
712             	3.05873274e+02
713             	3.05873222e+02
714             	3.05873179e+02
715             	3.05873161e+02
716             	3.05873170e+02
717             	3.05873198e+02
718             	3.05873245e+02
719             	3.05873298e+02
720             	3.05873354e+02
721             	3.05873413e+02
722             	3.05873477e+02
723             	3.05873548e+02
724             	3.05873623e+02
725             	3.05873712e+02
726             	3.05873836e+02
727             	3.05874013e+02
728             	3.05874225e+02
729             	3.05874455e+02
730             	3.05874712e+02
731             	3.05874998e+02
732             	3.05875309e+02
733             	3.05875648e+02
734             	3.05876005e+02
735             	3.05876366e+02
736             	3.05876735e+02
737             	3.05877111e+02
738             	3.05877477e+02
739             	3.05877846e+02
740             	3.05878186e+02
741             	3.05878492e+02
742             	3.05878810e+02
743             	3.05879062e+02
744             	3.05879243e+02
745             	3.05879389e+02
746             	3.05879514e+02
747             	3.05879625e+02
748             	3.05879714e+02
749             	3.05879769e+02
750             	3.05879788e+02
751             	3.05879783e+02
752             	3.05879766e+02
753             	3.05879737e+02
754             	3.05879693e+02
755             	3.05879629e+02
756             	3.05879559e+02
757             	3.05879480e+02
758             	3.05879394e+02
759             	3.05879308e+02
760             	3.05879227e+02
761             	3.05879150e+02
762             	3.05879064e+02
763             	3.05878999e+02
764             	3.05878958e+02
765             	3.05878936e+02
766             	3.05878928e+02
767             	3.05878933e+02
768             	3.05878948e+02
769             	3.05878972e+02
770             	3.05879006e+02
771             	3.05879054e+02
772             	3.05879112e+02
773             	3.05879195e+02
774             	3.05879299e+02
775             	3.05879446e+02
776             	3.05879621e+02
777             	3.05879819e+02
778             	3.05880048e+02
779             	3.05880308e+02
780             	3.05880591e+02
781             	3.05880894e+02
782             	3.05881208e+02
783             	3.05881523e+02
784             	3.05881840e+02
785             	3.05882149e+02
786             	3.05882438e+02
787             	3.05882723e+02
788             	3.05882974e+02
789             	3.05883219e+02
790             	3.05883412e+02
791             	3.05883550e+02
792             	3.05883667e+02
793             	3.05883766e+02
794             	3.05883837e+02
795             	3.05883878e+02
796             	3.05883897e+02
797             	3.05883889e+02
798             	3.05883861e+02
799             	3.05883819e+02
800             	3.05883777e+02
801             	3.05883730e+02
802             	3.05883673e+02
803             	3.05883600e+02
804             	3.05883484e+02
805             	3.05883350e+02
806             	3.05883211e+02
807             	3.05883076e+02
808             	3.05882943e+02
809             	3.05882797e+02
810             	3.05882671e+02
811             	3.05882573e+02
812             	3.05882494e+02
813             	3.05882432e+02
814             	3.05882384e+02
815             	3.05882347e+02
816             	3.05882318e+02
817             	3.05882299e+02
818             	3.05882289e+02
819             	3.05882292e+02
820             	3.05882312e+02
821             	3.05882354e+02
822             	3.05882451e+02
823             	3.05882591e+02
824             	3.05882760e+02
825             	3.05882964e+02
826             	3.05883198e+02
827             	3.05883464e+02
828             	3.05883753e+02
829             	3.05884056e+02
830             	3.05884364e+02
831             	3.05884667e+02
832             	3.05884960e+02
833             	3.05885239e+02
834             	3.05885526e+02
835             	3.05885767e+02
836             	3.05885952e+02
837             	3.05886121e+02
838             	3.05886283e+02
839             	3.05886423e+02
840             	3.05886538e+02
841             	3.05886629e+02
842             	3.05886692e+02
843             	3.05886721e+02
844             	3.05886719e+02
845             	3.05886690e+02
846             	3.05886640e+02
847             	3.05886577e+02
848             	3.05886499e+02
849             	3.05886385e+02
850             	3.05886236e+02
851             	3.05886066e+02
852             	3.05885897e+02
853             	3.05885738e+02
854             	3.05885569e+02
855             	3.05885430e+02
856             	3.05885328e+02
857             	3.05885247e+02
858             	3.05885177e+02
859             	3.05885113e+02
860             	3.05885051e+02
861             	3.05884991e+02
862             	3.05884935e+02
863             	3.05884886e+02
864             	3.05884847e+02
865             	3.05884818e+02
866             	3.05884808e+02
867             	3.05884822e+02
868             	3.05884864e+02
869             	3.05884936e+02
870             	3.05885023e+02
871             	3.05885142e+02
872             	3.05885285e+02
873             	3.05885452e+02
874             	3.05885644e+02
875             	3.05885863e+02
876             	3.05886106e+02
877             	3.05886365e+02
878             	3.05886630e+02
879             	3.05886896e+02
880             	3.05887154e+02
881             	3.05887398e+02
882             	3.05887623e+02
883             	3.05887836e+02
884             	3.05888016e+02
885             	3.05888199e+02
886             	3.05888342e+02
887             	3.05888471e+02
888             	3.05888560e+02
889             	3.05888626e+02
890             	3.05888680e+02
891             	3.05888706e+02
892             	3.05888698e+02
893             	3.05888654e+02
894             	3.05888585e+02
895             	3.05888531e+02
896             	3.05888484e+02
897             	3.05888414e+02
898             	3.05888302e+02
899             	3.05888157e+02
900             	3.05887998e+02
901             	3.05887852e+02
902             	3.05887721e+02
903             	3.05887603e+02
904             	3.05887498e+02
905             	3.05887402e+02
906             	3.05887309e+02
907             	3.05887218e+02
908             	3.05887130e+02
909             	3.05887046e+02
910             	3.05886971e+02
911             	3.05886909e+02
912             	3.05886864e+02
913             	3.05886840e+02
914             	3.05886838e+02
915             	3.05886861e+02
916             	3.05886915e+02
917             	3.05886989e+02
918             	3.05887117e+02
919             	3.05887275e+02
920             	3.05887466e+02
921             	3.05887688e+02
922             	3.05887933e+02
923             	3.05888203e+02
924             	3.05888484e+02
925             	3.05888754e+02
926             	3.05889038e+02
927             	3.05889295e+02
928             	3.05889509e+02
929             	3.05889724e+02
930             	3.05889899e+02
931             	3.05890030e+02
932             	3.05890135e+02
933             	3.05890235e+02